ITEM: TIMESTEP
35700
ITEM: NUMBER OF ATOMS
330
ITEM: BOX BOUNDS pp pp pp
-1.4715758017245314e+01 1.5057610017245315e+01
-1.2710055654020760e+01 1.2664508654020761e+01
-5.0001035148846022e+01 1.0000103514884636e+02
ITEM: ATOMS id type x y z vx vy vz
61 1 -13.6674 -11.9461 19.9999 0 0 0
62 1 -13.1228 -10.6724 19.9999 0 0 0
63 1 -13.7825 -9.34696 19.9999 0 0 0
64 1 -13.0772 -8.00396 19.9999 0 0 0
65 1 -13.7542 -6.79742 19.9999 0 0 0
81 1 -11.507 -10.5408 19.9999 0 0 0
82 1 -11.5331 -8.01671 19.9999 0 0 0
91 1 -10.7591 -11.6424 19.9999 0 0 0
92 1 -10.9863 -9.2763 20.0004 -0.00706935 0.00159239 -7.69814e-05
93 1 -10.9665 -6.82364 19.9969 -0.00415311 -0.00394621 -0.000892404
101 1 -9.52473 -11.6468 19.9999 0 0 0
102 1 -8.74136 -10.5124 19.9999 0 0 0
103 1 -9.63494 -9.48044 19.9982 -0.0103732 -0.0009045 -0.000678227
104 1 -8.98161 -8.23202 20.0093 -0.00439658 0.00301734 -0.000215507
105 1 -9.65514 -6.99841 20.0136 -0.00215122 7.01759e-05 0.000591918
121 1 -7.27873 -10.5146 19.9999 0 0 0
122 1 -7.62623 -8.27556 20.0455 -0.00977329 0.0160894 0.00469234
131 1 -6.50232 -11.6488 19.9999 0 0 0
132 1 -6.80789 -9.35365 20.0016 -0.00134196 0.0250296 -0.000963603
133 1 -6.72679 -7.15892 20.2088 -0.00182907 0.00749471 0.0118354
141 1 -5.25854 -11.6473 19.9999 0 0 0
142 1 -4.47674 -10.5145 19.9999 0 0 0
143 1 -5.50021 -9.57388 20.0431 -0.00432459 0.0256687 0.00552867
144 1 -4.76081 -8.38853 20.1669 -0.0120065 0.0197723 0.00833488
145 1 -5.36333 -7.2104 20.0675 0.0264768 0.0329911 -0.0257827
161 1 -3.01281 -10.5144 19.9999 0 0 0
162 1 -3.31699 -8.21303 20.047 -0.0156421 0.0165943 -0.00222778
171 1 -2.23133 -11.6474 19.9999 0 0 0
172 1 -2.38683 -9.22319 20.1389 0.0017699 -0.0016961 0.00742972
173 1 -2.4999 -7.08176 19.3897 0.040581 0.010177 -0.0255412
181 1 -0.986751 -11.6474 19.9999 0 0 0
182 1 -0.205108 -10.5143 19.9999 0 0 0
183 1 -1.00876 -9.28821 20.1058 0.0161295 0.0224049 0.00809733
184 1 -0.213499 -8.32369 19.8589 0.0140399 0.0311219 -0.0226554
185 1 -1.00909 -7.28359 19.3007 0.0446062 0.0334142 -0.0153388
201 1 1.25901 -10.5143 19.9999 0 0 0
202 1 1.33988 -8.3284 19.7237 0.011313 0.0161278 -0.0170057
211 1 2.0406 -11.6474 19.9999 0 0 0
212 1 2.14783 -9.38188 20.1358 0.0193898 0.0206191 0.00609165
213 1 2.16108 -7.28092 19.3911 -0.0157285 0.046153 -0.000473688
221 1 3.28523 -11.6473 19.9999 0 0 0
222 1 4.06705 -10.5143 19.9999 0 0 0
223 1 3.60724 -9.23558 20.1089 0.0177914 0.00856755 0.00846434
224 1 4.57826 -8.30298 19.9494 0.00832414 0.0318467 -0.0173847
225 1 3.62722 -7.24531 19.2798 0.0353466 0.0241199 -0.0132114
241 1 5.53108 -10.5143 19.9999 0 0 0
242 1 5.8596 -8.39514 20.1227 0.0106805 0.0241959 0.00323724
251 1 6.31174 -11.6474 19.9999 0 0 0
252 1 6.4674 -9.53442 20.0591 0.000670854 0.0190568 0.00630678
253 1 6.58763 -7.21588 19.8627 0.0224745 -0.00608088 -0.00847765
261 1 7.55524 -11.6498 19.9999 0 0 0
204 1 2.30569 -6.70459 21.5686 0.0134273 -0.0343963 0.022538
265 1 8.0238 -7.1932 20.0649 0.00151715 0.00529032 -0.000610789
263 1 7.69808 -9.40851 19.9987 0.00420462 0.0150051 -0.000999621
262 1 8.33779 -10.5154 19.9999 0 0 0
264 1 8.62891 -8.42889 20.0504 0.00305617 0.0213204 0.00420266
281 1 9.79556 -10.5245 19.9999 0 0 0
282 1 9.98674 -8.34929 20.0091 -0.00671759 -0.0156278 0.000582208
291 1 10.5816 -11.6418 19.9999 0 0 0
292 1 10.6565 -9.43016 19.9991 0.00563437 -0.00679938 -0.00055961
293 1 10.6462 -7.11012 20.0179 -0.00723617 -0.00825839 0.00142052
301 1 11.8019 -11.7522 19.9999 0 0 0
302 1 12.7161 -10.5156 19.9999 0 0 0
303 1 11.8934 -9.22642 19.9999 0 0 0
304 1 12.655 -8.00627 19.9999 0 0 0
305 1 11.8992 -6.77596 19.9999 0 0 0
321 1 14.087 -10.4984 19.9999 0 0 0
322 1 14.0714 -8.01298 19.9999 0 0 0
66 1 -13.0658 -5.54976 19.9999 0 0 0
67 1 -13.7179 -4.30197 19.9999 0 0 0
68 1 -13.0406 -3.0891 19.9999 0 0 0
69 1 -13.6883 -1.86008 19.9999 0 0 0
70 1 -13.0424 -0.636745 19.9999 0 0 0
83 1 -11.5387 -5.54743 19.9999 0 0 0
84 1 -11.5566 -3.09089 19.9999 0 0 0
85 1 -11.5625 -0.637245 19.9999 0 0 0
94 1 -11.0487 -4.33231 20.0049 0.0139799 0.0029666 7.17694e-05
95 1 -11.159 -1.8769 20.0174 0.0180989 0.00305032 0.00146566
106 1 -8.86331 -5.798 20.1154 0.0155295 0.00256987 0.00732777
107 1 -9.67456 -4.5213 20.0631 0.000204158 -0.00214436 0.00468641
108 1 -9.00396 -3.24409 20.1223 0.00830781 0.0031599 0.00514413
109 1 -9.77198 -1.94455 20.0702 0.0306333 -0.0152107 0.00434336
110 1 -9.09029 -0.713313 20.0563 -0.000731378 -0.0117349 0.000482941
123 1 -7.41392 -5.93482 20.2435 0.0184843 0.0140211 0.00467232
124 1 -7.58827 -3.30059 19.9915 0.0224848 -0.00952735 -0.0089009
125 1 -7.69224 -0.818636 19.8092 0.0196972 0.000945687 -0.0172924
134 1 -6.82017 -4.56138 19.962 0.0123772 0.00621087 -0.00796297
135 1 -7.03385 -2.1131 19.3718 -0.00741902 0.000789948 -0.0223622
146 1 -4.83762 -5.96883 19.2753 0.0139937 -0.00933283 -0.023512
147 1 -5.64265 -4.56754 19.0265 0.0110897 0.0182076 -0.026254
148 1 -5.39127 -3.43255 18.7167 0.0247662 0.00137466 -0.024153
149 1 -5.68359 -2.21303 19.0702 0.00778093 0.00358082 0.0118093
150 1 -5.34617 -1.41702 20.6859 -0.0298528 -0.000912171 0.0241585
163 1 -3.28427 -5.75429 19.4897 -0.00454002 0.00615314 0.00928632
164 1 -4.49962 -4.1958 21.7937 -0.0184476 -0.0159157 0.00241977
165 1 -5.59284 -2.08343 21.7468 -0.0101689 0.0391831 -0.0066814
174 1 -3.22787 -4.784 20.7075 -0.000560803 0.0165946 0.0712735
175 1 -5.35888 -3.27482 21.9595 0.0184342 -0.00658322 0.053409
186 1 0.0463193 -6.26315 19.8711 -0.00185123 0.00678658 0.060151
187 1 -1.73631 -4.35596 20.7506 0.0112448 -0.0616683 -0.00818763
188 1 -0.789755 -5.48806 20.9327 0.0211039 -0.00910015 -0.0146704
190 1 -2.04842 -2.9371 21.0454 -0.0284938 0.0203024 0.0417514
205 1 -1.27426 -3.32993 19.0416 -0.0535238 -0.066306 -0.0206731
203 1 1.55005 -6.17919 20.3601 0.0210472 -0.0116969 0.0547214
226 1 4.48539 -5.95376 19.4916 -0.00738032 -0.00260714 0.000157659
227 1 4.29829 -5.05094 20.8527 0.0413184 0.00962613 0.0297737
229 1 5.34182 -4.2396 20.8582 0.0132601 -0.00562464 -0.00530123
230 1 6.09447 -0.992821 21.7808 0.0464408 0.0233765 -0.0151161
243 1 6.0735 -5.95104 19.3048 0.00498057 0.00671587 -0.020141
244 1 6.12069 -3.64224 20.0021 -0.0139173 -0.0123931 0.0265046
245 1 6.16921 -0.815168 20.3895 -0.0118762 -0.0260209 0.00974117
254 1 6.98478 -4.98617 19.25 0.0187592 0.0240718 -0.0142819
255 1 6.79653 -2.17447 20.123 -0.0273459 -9.39091e-05 0.0165399
214 1 3.53294 -5.74988 21.8941 0.0538201 -0.052328 -0.00229628
267 1 8.20215 -4.73369 19.7559 0.00427566 -0.0133948 -0.0172952
269 1 7.95833 -2.13321 19.7101 -0.0294833 -0.00295146 0.00362724
266 1 8.78841 -6.07962 20.0552 0.00481336 0.000173564 0.000450598
268 1 8.6037 -3.4119 19.8095 -0.0354269 -0.021562 -0.0169966
270 1 8.49488 -0.662453 19.8043 -0.03766 0.0217566 -0.014282
283 1 10.073 -5.86512 20.0732 -0.00881538 -0.0141333 0.00501495
284 1 9.88693 -3.42361 20.0908 -0.0296787 -0.00886446 0.00232459
285 1 9.79064 -0.911911 20.1193 -0.0369132 -0.0192151 0.0022116
294 1 10.544 -4.50161 20.047 -0.00503126 -0.010562 0.00396487
295 1 10.6061 -2.02229 20.0246 -0.0144224 -0.00806019 0.00497508
306 1 12.6496 -5.55341 19.9999 0 0 0
307 1 11.9041 -4.32686 19.9999 0 0 0
308 1 12.647 -3.09734 19.9999 0 0 0
309 1 11.9037 -1.86828 19.9999 0 0 0
310 1 12.6457 -0.637745 19.9999 0 0 0
323 1 14.0539 -5.56516 19.9999 0 0 0
324 1 14.0472 -3.10129 19.9999 0 0 0
325 1 14.0438 -0.638188 19.9999 0 0 0
71 1 -13.6826 0.591886 19.9999 0 0 0
72 1 -13.0424 1.82079 19.9999 0 0 0
73 1 -13.6895 3.04359 19.9999 0 0 0
74 1 -13.0413 4.27397 19.9999 0 0 0
75 1 -13.7195 5.48914 19.9999 0 0 0
86 1 -11.5623 1.82169 19.9999 0 0 0
87 1 -11.5564 4.27485 19.9999 0 0 0
96 1 -11.1104 0.590548 20.0158 0.0091448 -3.80504e-05 0.00123904
97 1 -11.0233 3.05984 20.0187 0.0102865 -0.00575766 0.00121563
98 1 -11.0169 5.56264 20.0127 0.0118121 0.00509125 0.000834658
111 1 -9.76595 0.642523 20.0513 0.0310341 0.00586963 0.00389649
112 1 -9.02563 1.95436 20.0369 0.00776603 -0.000287073 -0.00236968
113 1 -9.6385 3.27028 20.051 0.0179226 0.00726671 0.00160667
114 1 -8.91791 4.4718 20.0492 -0.00530442 0.00117896 0.00176278
115 1 -9.62222 5.64167 20.0508 0.0168977 0.0153551 0.00162106
126 1 -7.64436 1.85149 19.8396 0.00659091 0.00413206 -0.00871298
127 1 -7.41379 4.48202 19.977 0.0336025 0.0130175 -0.000733914
136 1 -6.96534 0.530215 19.7468 0.0164299 -0.0111391 0.00575515
137 1 -6.7144 3.1694 19.6571 0.00173442 -0.00489397 -0.00485164
138 1 -6.70598 5.74321 20.145 0.0142131 -0.00818995 -0.00641053
151 1 -5.54024 0.388287 20.0515 0.0080859 -0.0169901 0.0216546
152 1 -4.75949 1.8005 20.0857 0.0391642 -0.00477585 0.00939742
153 1 -5.42336 3.07791 19.4325 0.0321304 -0.047011 -0.0060371
154 1 -4.76935 4.5595 19.2844 0.0081465 0.0136819 0.000822302
155 1 -5.24967 5.79905 19.9163 -0.0111419 -0.0120153 -0.00669575
166 1 -4.7356 1.46332 21.426 -0.0299725 -0.00923395 -0.0117562
167 1 -3.62966 5.1585 18.4994 0.034807 -0.0291544 -0.0394418
176 1 -1.52649 4.3584 21.4199 0.0109322 0.0550519 -0.0184103
178 1 -2.43265 5.97461 19.2109 -0.00285569 0.0100934 0.00273146
191 1 -3.1085 4.84776 21.1551 -0.0111574 0.0628024 0.0917142
194 1 -1.52142 4.93289 20.7514 -0.0464174 0.0149826 -0.00412942
195 1 -1.09618 5.54205 19.5951 -0.0195398 -0.0235439 0.00429491
207 1 2.67999 5.19142 20.9674 -0.000663798 0.0450255 0.0505651
217 1 4.12701 4.98281 21.3766 0.0510481 -0.00177916 0.0176923
218 1 2.26331 6.06807 19.5799 0.0121745 0.0115415 -0.0268882
232 1 7.23246 2.98168 21.6985 0.0324222 0.0137629 0.0279064
234 1 4.3655 5.00745 19.8489 0.00396379 -0.00416397 -0.00639548
235 1 3.52818 6.16143 19.0905 0.00784835 -0.0217632 0.00514511
246 1 6.48063 1.96507 19.8735 -0.0191423 0.0215581 0.0184838
247 1 5.81061 4.74555 19.5718 0.016106 7.96852e-05 0.0125861
256 1 6.84969 0.598692 20.0332 -0.0259228 -0.0104059 0.0243648
257 1 6.52823 3.31245 19.6327 0.010249 -0.0303776 0.017448
258 1 6.54216 5.97199 19.6166 0.0181162 0.0267905 -0.0106795
275 1 7.88707 5.93233 19.9947 0.0152626 -0.0192174 -0.0100913
273 1 7.97643 3.32794 19.6385 -0.0252796 -0.016292 -0.016015
271 1 8.09235 0.565357 19.7668 -0.0285886 0.00317593 -0.00428752
272 1 8.53207 2.10985 19.7957 -0.02297 -0.0100702 -0.0130055
274 1 8.45577 4.59047 20.0734 -0.0266398 -8.32831e-05 -0.00455902
286 1 9.92189 1.82163 20.0432 -0.047282 0.0230596 -0.00147823
287 1 9.84793 4.50062 20.0351 -0.0220025 0.00568215 0.00501368
296 1 10.6596 0.471358 20.0152 -0.00300028 0.0125417 0.00334964
297 1 10.4685 2.9783 20.039 -0.00907005 0.00761686 0.00236532
298 1 10.4515 5.72668 20.0035 -0.0278475 -0.0272787 0.00102394
311 1 11.9034 0.592385 19.9999 0 0 0
312 1 12.6457 1.82255 19.9999 0 0 0
313 1 11.9038 3.05326 19.9999 0 0 0
314 1 12.6466 4.28301 19.9999 0 0 0
315 1 11.9041 5.51379 19.9999 0 0 0
326 1 14.0439 1.82305 19.9999 0 0 0
327 1 14.0468 4.28589 19.9999 0 0 0
76 1 -13.0678 6.73987 19.9999 0 0 0
77 1 -13.743 7.99662 19.9999 0 0 0
78 1 -13.076 9.22053 19.9999 0 0 0
79 1 -13.6781 10.6114 19.9999 0 0 0
80 1 -13.0646 11.9529 19.9999 0 0 0
88 1 -11.5395 6.7281 19.9999 0 0 0
89 1 -11.5535 9.18478 19.9999 0 0 0
90 1 -11.7099 11.6077 19.9999 0 0 0
99 1 -10.9907 7.95211 20.0032 -0.01087 0.00800943 -4.75078e-05
100 1 -10.9027 10.4758 19.9999 0 0 0
116 1 -8.92451 6.91625 20.0187 0.00499044 -0.0139073 0.00139759
117 1 -9.65719 8.17267 20.0065 0.0056933 -0.0152086 -0.000391283
118 1 -8.96482 9.35261 20.0054 0.00501644 -0.00461904 -0.000323223
119 1 -9.37207 10.4804 19.9999 0 0 0
120 1 -8.62688 11.6228 19.9999 0 0 0
130 1 -7.38724 11.6024 19.9999 0 0 0
128 1 -7.46076 7.03321 20.0784 0.0271146 -0.0201201 0.00657376
129 1 -7.4791 9.44918 19.9959 0.0219123 -0.0326223 -0.000720388
139 1 -6.81767 8.30525 20.0323 0.00714695 -0.0336857 0.00534717
140 1 -6.60892 10.469 19.9999 0 0 0
156 1 -4.5875 6.80019 20.0975 0.00340801 -0.0230997 -0.00797105
157 1 -5.32118 7.87574 20.1394 0.000934824 -0.0182578 0.00612705
158 1 -4.59067 9.05309 19.9966 -0.00991431 -0.023317 0.0035932
159 1 -5.14663 10.4689 19.9999 0 0 0
160 1 -4.36691 11.6023 19.9999 0 0 0
168 1 -3.27297 7.00933 19.4903 0.0159403 -0.00443625 -0.0187159
169 1 -3.03214 9.20234 20.115 0.0142683 -0.0381951 0.00991651
170 1 -3.12269 11.6018 19.9999 0 0 0
179 1 -2.38754 7.8925 20.14 0.0263299 -0.0190808 -0.00989307
180 1 -2.34103 10.4689 19.9999 0 0 0
196 1 -0.265649 6.64794 19.5517 0.0326773 -0.0113626 -0.000274001
197 1 -1.00416 7.73427 19.9066 -0.00931694 -0.0367185 -0.00506204
198 1 -0.29859 9.01972 20.06 0.0146767 -0.000586435 -0.000427938
199 1 -0.876963 10.4688 19.9999 0 0 0
200 1 -0.0953724 11.6018 19.9999 0 0 0
208 1 1.2479 6.92829 19.7403 0.0211799 -0.0408698 -0.00833663
209 1 1.16377 9.15732 19.9806 -0.00313298 -0.0246315 5.87942e-05
210 1 1.14924 11.6018 19.9999 0 0 0
219 1 1.99829 8.25086 19.8769 0.0157844 -0.0385177 -0.00343793
220 1 1.93091 10.4688 19.9999 0 0 0
236 1 4.38897 7.18174 19.5975 0.0147865 -0.0137847 -0.027699
237 1 3.52996 8.25585 20.0057 0.0132951 -0.0021006 -0.0018689
238 1 4.23893 9.28034 20.0658 -0.00897196 -0.036099 0.00562208
239 1 3.39506 10.4687 19.9999 0 0 0
240 1 4.17656 11.6018 19.9999 0 0 0
248 1 5.75997 6.99905 19.924 0.0169993 0.00508507 -0.0115101
249 1 5.65107 9.33756 20.0162 0.00698831 -0.0189939 0.00219514
250 1 5.4212 11.6017 19.9999 0 0 0
259 1 6.50062 8.1913 20.0804 0.00884065 -0.024816 0.00284256
260 1 6.20335 10.4685 19.9999 0 0 0
277 1 7.89295 8.32673 20.0231 0.0145846 -0.0105955 0.00209468
276 1 8.58864 7.18692 20.0799 0.0116623 0.00351227 0.00273927
278 1 8.56989 9.51231 19.9981 0.00229581 -0.0124983 -0.000278233
279 1 7.66711 10.4687 19.9999 0 0 0
280 1 8.44529 11.6024 19.9999 0 0 0
288 1 9.95201 7.09396 20.0241 -0.0213026 0.0115813 0.00287628
289 1 9.85106 9.43958 20.0035 0.00146695 0.00920349 -0.000136623
290 1 9.6873 11.6101 19.9999 0 0 0
299 1 10.6294 8.35312 19.9998 -8.25011e-05 -0.00268946 -0.000236598
300 1 10.4752 10.4755 19.9999 0 0 0
316 1 12.6473 6.74288 19.9999 0 0 0
317 1 11.9051 7.97805 19.9999 0 0 0
318 1 12.6583 9.19198 19.9999 0 0 0
319 1 11.9246 10.4937 19.9999 0 0 0
320 1 12.7709 11.5297 19.9999 0 0 0
328 1 14.0456 6.75188 19.9999 0 0 0
329 1 14.0237 9.17042 19.9999 0 0 0
330 1 13.9415 11.792 19.9999 0 0 0
189 1 -0.912144 -0.884101 22.2519 0.0147229 0.0029609 0.0113413
228 1 4.04646 -5.89631 23.305 -0.0690828 -0.0302634 0.0389214
192 1 -5.07638 3.28285 23.1964 -0.0588799 0.0582819 0.0622066
193 1 -0.732828 6.24154 23.1233 0.0288927 0.0434934 0.0458611
206 1 1.99712 0.515812 22.8844 0.0123376 0.0784983 0.0411682
215 1 3.63008 1.46157 23.6044 0.0649837 -0.0390848 0.0751292
233 1 5.06555 4.97885 23.5407 0.0825496 0.0221259 0.0343798
231 1 5.94027 5.80036 23.4647 -0.0113114 0.0965561 0.065635
177 1 -1.60819 6.59591 23.8892 0.0281225 0.0589256 0.0954636
216 1 2.7477 -3.64533 29.5553 0.0449148 -0.0625207 0.193084
8 1 -1.59799 -6.17303 40.4347 -0.0402884 -0.0890667 0.432665
7 1 -0.120404 -6.33668 40.7227 0.0112026 -0.114392 0.44843
27 1 -5.61081 -0.515529 42.2324 -0.0997828 0.0223461 0.511915
28 1 -2.30837 -3.02872 43.1658 -0.00164303 -0.00716457 0.484159
44 1 -2.78115 -1.716 43.4316 -0.0161229 -0.0684518 0.47225
52 1 -1.50023 -3.56688 43.9937 -0.0142485 -0.0316092 0.501947
20 1 -2.38371 -1.64781 44.9595 0.0285435 -0.0116063 0.519742
36 1 -0.347244 -2.99064 45.021 -0.00115681 0.00508413 0.453771
50 1 -0.637615 -1.63224 44.7795 -0.0287531 0.021601 0.496191
60 1 -1.99121 -2.48261 46.1306 -0.0275212 -0.0442114 0.506637
4 1 -3.26929 -0.961764 45.5612 -0.0321094 -0.00817988 0.457531
12 1 -0.818339 -4.15209 46.4816 -0.0219317 0.0081906 0.456663
26 1 1.84611 -2.22953 43.0088 -0.0183565 0.0148476 0.458671
40 1 3.01517 -1.74084 43.2546 0.0193354 0.00470941 0.508311
16 1 3.16591 -1.39854 44.6758 -0.00517172 0.00689116 0.502425
35 1 0.646985 -2.22968 43.8324 -0.0108096 0.000429854 0.453044
59 1 2.56743 -2.58039 45.7651 0.0412227 -0.0126227 0.452452
42 1 -4.87624 0.484327 42.9852 -0.00635117 -0.019794 0.509039
32 1 -2.04934 1.28536 42.7606 -0.0222653 -0.029814 0.484145
10 1 -0.801099 2.26419 42.4502 -0.0356889 -0.00623823 0.440674
18 1 -4.72685 1.14327 44.0668 -0.0191786 0.00541831 0.513237
56 1 -2.10811 1.49168 44.306 0.0413264 0.00526989 0.503687
9 1 0.0821506 3.74843 45.3927 0.0131559 0.00874766 0.500224
54 1 -1.65807 0.875309 45.2642 0.00668274 -0.0174475 0.489437
3 1 -3.81061 0.140437 45.0063 -0.0466973 -0.0304727 0.458318
30 1 -1.34727 3.62765 46.3848 0.00870636 0.0135686 0.509222
17 1 -2.84586 1.52373 45.5821 -0.0270352 0.0346457 0.485725
25 1 2.83524 1.49037 40.7854 -0.0113565 0.018954 0.459683
49 1 1.78687 2.77686 41.1891 0.0356825 0.0483501 0.464528
51 1 0.471419 2.31245 41.5233 0.0600226 0.0261158 0.445103
38 1 2.85991 1.32887 42.1553 0.0259209 0.0270625 0.47881
2 1 2.68951 0.138609 45.7718 0.0116334 0.0308575 0.43834
31 1 2.38766 3.4119 42.4833 0.00511989 0.0325918 0.458789
55 1 1.84158 2.53783 43.6733 0.0128149 0.0282257 0.432576
14 1 2.46408 1.1793 43.7377 -0.0121425 0.0253188 0.46705
1 1 3.14318 1.32937 45.1159 0.0254297 0.00931676 0.487908
29 1 1.24233 3.53525 45.7325 -0.0220004 -0.0114843 0.497373
58 1 -2.18262 -2.48699 47.4602 0.0240253 -0.0261505 0.456077
19 1 -3.14536 -0.99614 47.4912 0.014066 -0.000298137 0.47254
34 1 -1.53803 -2.98544 48.5955 -0.0615971 0.00938953 0.499239
43 1 -2.61779 -0.0997966 48.4851 0.0095735 0.00464554 0.474364
11 1 -0.550733 -3.36753 47.6598 -0.0193697 -0.017431 0.476715
48 1 -0.919184 -2.09252 49.625 -0.00671071 -0.00287575 0.493278
24 1 -1.66609 -1.05418 49.9703 -0.00756659 0.0251882 0.496443
57 1 2.34145 -1.88105 46.8757 0.0113791 0.0298868 0.49209
15 1 2.07651 -0.0753596 47.1829 0.00631981 -0.0324531 0.4783
33 1 0.431207 -1.99885 48.6688 -0.00819672 0.0329858 0.519872
46 1 0.685598 -0.560861 49.0431 -0.0390836 -0.00948416 0.499342
41 1 -2.37353 1.17547 47.4122 -0.00384883 -0.0219385 0.47475
47 1 -1.44048 3.53739 47.629 -0.0014946 0.0111803 0.5193
45 1 -0.841935 5.5297 47.9936 -0.0497026 0.0622166 0.503103
23 1 -2.22384 2.4084 48.3165 0.0210665 0.0470403 0.494048
21 1 -0.373334 4.5922 48.5444 -0.0330281 -0.0219539 0.48486
5 1 -0.550262 1.55551 49.5324 -0.019522 0.0291346 0.542561
53 1 2.25756 2.5911 46.8283 0.000740387 0.00425758 0.538344
13 1 3.28996 1.98015 46.7101 -0.0167707 -0.011852 0.473191
37 1 3.74435 1.21419 47.8783 -0.00104836 0.0301383 0.525094
39 1 2.20943 0.586641 48.3403 -0.00195186 -0.00293697 0.464894
6 1 0.516962 2.14042 49.3396 0.052976 -0.0270029 0.496497
22 1 1.25289 0.816248 49.3745 -0.00453046 0.0186706 0.489
