ITEM: TIMESTEP
37900
ITEM: NUMBER OF ATOMS
330
ITEM: BOX BOUNDS pp pp pp
-1.4715758017245314e+01 1.5057610017245315e+01
-1.2710055654020760e+01 1.2664508654020761e+01
-5.0001035148846022e+01 1.0000103514884636e+02
ITEM: ATOMS id type x y z vx vy vz
61 1 -13.6674 -11.9461 19.9999 0 0 0
62 1 -13.1228 -10.6724 19.9999 0 0 0
63 1 -13.7825 -9.34696 19.9999 0 0 0
64 1 -13.0772 -8.00396 19.9999 0 0 0
65 1 -13.7542 -6.79742 19.9999 0 0 0
81 1 -11.507 -10.5408 19.9999 0 0 0
82 1 -11.5331 -8.01671 19.9999 0 0 0
91 1 -10.7591 -11.6424 19.9999 0 0 0
92 1 -11.0066 -9.27123 19.9999 -0.00186741 0.000661938 -0.000158581
93 1 -10.9853 -6.82648 19.9924 -0.00330673 0.00267272 -0.00116284
101 1 -9.52473 -11.6468 19.9999 0 0 0
102 1 -8.74136 -10.5124 19.9999 0 0 0
103 1 -9.65548 -9.44709 19.9947 0.00150632 0.0150287 -0.000891195
104 1 -9.01377 -8.22489 20.0086 -0.00971111 0.00111364 -3.49543e-05
105 1 -9.61916 -6.9719 20.0206 0.0177665 0.0119592 0.00266716
121 1 -7.27873 -10.5146 19.9999 0 0 0
122 1 -7.64251 -8.18563 20.0712 0.00208744 0.0239483 0.00689377
131 1 -6.50232 -11.6488 19.9999 0 0 0
132 1 -6.80845 -9.25854 19.9958 0.000925489 0.017711 -0.00169512
133 1 -6.7416 -7.12457 20.2559 -0.00221405 0.0112806 0.00876233
141 1 -5.25854 -11.6473 19.9999 0 0 0
142 1 -4.47674 -10.5145 19.9999 0 0 0
143 1 -5.48345 -9.42898 20.0726 0.0121534 0.0358751 0.0074794
144 1 -4.77934 -8.30245 20.1973 0.00461305 0.0211059 0.00561636
145 1 -5.26912 -7.03055 19.9392 0.0126032 0.0463645 -0.0310862
161 1 -3.01281 -10.5144 19.9999 0 0 0
162 1 -3.34363 -8.11202 20.0108 0.00764403 0.0256317 -0.0137182
171 1 -2.23133 -11.6474 19.9999 0 0 0
172 1 -2.39243 -9.23599 20.1701 -0.00296532 0.00165408 0.00642782
173 1 -2.34391 -7.05643 19.3087 0.0248456 0.00372828 -0.0105371
181 1 -0.986751 -11.6474 19.9999 0 0 0
182 1 -0.205108 -10.5143 19.9999 0 0 0
183 1 -0.921308 -9.21266 20.1388 0.0192521 0.00962916 0.00727896
184 1 -0.142505 -8.23935 19.7444 0.0188004 0.00731275 -0.0269
185 1 -0.814785 -7.10687 19.2514 0.0418916 0.050157 -0.00960566
201 1 1.25901 -10.5143 19.9999 0 0 0
202 1 1.35838 -8.27466 19.653 0.00664149 0.0127691 -0.0165441
211 1 2.0406 -11.6474 19.9999 0 0 0
212 1 2.22881 -9.29175 20.155 0.0140167 0.0194576 0.00190256
213 1 2.12722 -7.02366 19.4068 0.000145393 0.0632918 0.0101137
221 1 3.28523 -11.6473 19.9999 0 0 0
222 1 4.06705 -10.5143 19.9999 0 0 0
223 1 3.66393 -9.21191 20.1474 0.00771569 0.00382547 0.00883217
224 1 4.55313 -8.14283 19.8559 -0.0154975 0.0371002 -0.0230953
225 1 3.78861 -7.12934 19.2438 0.0308576 0.0308414 -0.00465889
241 1 5.53108 -10.5143 19.9999 0 0 0
242 1 5.90993 -8.26715 20.134 0.0103378 0.0329812 0.00180573
251 1 6.31174 -11.6474 19.9999 0 0 0
252 1 6.44939 -9.43701 20.0901 -0.00885789 0.0240157 0.00775965
253 1 6.68378 -7.20403 19.8119 0.0179548 0.0128133 -0.0153904
261 1 7.55524 -11.6498 19.9999 0 0 0
204 1 2.36314 -6.81492 21.6435 0.0157717 -0.0181394 0.0151365
265 1 8.01402 -7.1677 20.0609 -0.00255968 0.00836426 -0.000901563
263 1 7.73723 -9.35354 19.9941 0.0132797 0.0102248 -0.00096673
262 1 8.33779 -10.5154 19.9999 0 0 0
264 1 8.64247 -8.32623 20.0711 0.00211312 0.0224767 0.00521114
281 1 9.79556 -10.5245 19.9999 0 0 0
282 1 9.95605 -8.39079 20.0131 -0.00617167 -0.00266659 0.0012691
291 1 10.5816 -11.6418 19.9999 0 0 0
292 1 10.661 -9.45203 19.9961 -0.0039477 -0.00292678 -0.000795935
293 1 10.6033 -7.14656 20.0258 -0.0109426 -0.00860085 0.00216612
301 1 11.8019 -11.7522 19.9999 0 0 0
302 1 12.7161 -10.5156 19.9999 0 0 0
303 1 11.8934 -9.22642 19.9999 0 0 0
304 1 12.655 -8.00627 19.9999 0 0 0
305 1 11.8992 -6.77596 19.9999 0 0 0
321 1 14.087 -10.4984 19.9999 0 0 0
322 1 14.0714 -8.01298 19.9999 0 0 0
66 1 -13.0658 -5.54976 19.9999 0 0 0
67 1 -13.7179 -4.30197 19.9999 0 0 0
68 1 -13.0406 -3.0891 19.9999 0 0 0
69 1 -13.6883 -1.86008 19.9999 0 0 0
70 1 -13.0424 -0.636745 19.9999 0 0 0
83 1 -11.5387 -5.54743 19.9999 0 0 0
84 1 -11.5566 -3.09089 19.9999 0 0 0
85 1 -11.5625 -0.637245 19.9999 0 0 0
94 1 -10.9631 -4.32766 20.0056 0.0230495 -0.00131651 0.000200109
95 1 -11.0421 -1.86609 20.0261 0.0337511 0.000988127 0.00250372
106 1 -8.82218 -5.77313 20.1466 0.00307316 0.00774185 0.00671331
107 1 -9.61201 -4.53322 20.0902 0.0272801 -0.00327237 0.00752883
108 1 -8.98468 -3.25291 20.1427 0.00709761 -0.00960482 0.00389118
109 1 -9.62568 -2.02744 20.091 0.0330856 -0.0180638 0.00501927
110 1 -9.06624 -0.731963 20.0507 0.0142907 0.00377242 -0.00347002
123 1 -7.35946 -5.82639 20.2546 0.00549076 0.0282715 0.00155264
124 1 -7.50126 -3.36312 19.9556 0.0139165 -0.0126923 -0.0088332
125 1 -7.61846 -0.803024 19.7297 0.0106685 0.00575774 -0.0178253
134 1 -6.76727 -4.55653 19.9179 0.0150083 -0.000316569 -0.0136103
135 1 -7.08453 -2.07648 19.2818 -0.0105628 0.0103455 -0.0180443
146 1 -4.7681 -5.9834 19.178 0.0109094 0.0049363 -0.022248
147 1 -5.60578 -4.56058 18.9428 0.00791044 -0.0140863 -0.0123306
148 1 -5.25448 -3.40351 18.6068 0.0349784 0.01236 -0.023285
149 1 -5.62107 -2.15513 19.1633 0.016369 0.0220018 0.0352088
150 1 -5.48916 -1.36487 20.6936 -0.0358082 0.0229593 -0.0220652
163 1 -3.31945 -5.7348 19.5502 -0.00384251 0.00212803 0.0189161
164 1 -4.552 -4.28957 21.7816 -0.00449881 -0.0280293 -0.00458373
165 1 -5.63302 -1.94155 21.7453 -0.00468139 0.0251699 0.00306658
174 1 -3.23385 -4.72086 21.0086 0.00815266 0.00824087 0.0590406
186 1 0.0540424 -6.17967 20.1574 0.00765734 0.0232419 0.0661803
187 1 -1.72295 -4.57698 20.7049 -0.00858715 -0.037858 -0.0114052
188 1 -0.682851 -5.52524 20.8609 0.0224363 -0.00134975 -0.0164265
190 1 -2.15951 -2.87883 21.2176 -0.0222664 0.00400324 0.0369017
205 1 -1.51638 -3.63202 18.9799 -0.0561086 -0.0723899 -0.0066696
203 1 1.64173 -6.28038 20.5847 0.0191438 -0.03094 0.0432435
226 1 4.48161 -5.95314 19.5156 0.0126389 0.00516639 0.0120625
227 1 4.48001 -5.05543 20.9498 0.0397745 -0.0153496 0.013232
229 1 5.37163 -4.25266 20.8334 -0.00040357 0.000301734 -0.00536382
230 1 6.28552 -0.875013 21.7249 0.0408552 0.0290664 -0.00706511
243 1 6.05371 -5.97482 19.2307 -0.0131945 -0.010334 -0.0121351
244 1 6.13468 -3.68621 20.0919 0.0172338 -0.0108595 0.0137898
245 1 6.10032 -0.923352 20.457 -0.0233782 -0.0162886 0.0191381
254 1 6.96054 -4.81176 19.205 -0.0329203 0.0462777 -0.00706326
255 1 6.64881 -2.25063 20.1622 -0.0347051 -0.0354998 0.00165232
214 1 3.75799 -5.99808 21.9439 0.0473127 -0.0585991 0.024939
267 1 8.25351 -4.81639 19.691 0.0173264 -0.0228748 -0.012799
269 1 7.84066 -2.1214 19.7298 -0.0219112 0.00632083 0.00457302
266 1 8.79478 -6.04228 20.0537 -0.00266124 0.01394 -0.000936006
268 1 8.46701 -3.47884 19.7383 -0.026363 -0.0051557 -0.0150327
270 1 8.37709 -0.639687 19.7489 -0.0149953 -0.0135842 -0.0106873
283 1 10.028 -5.92422 20.0968 -0.0109803 -0.0116735 0.00580263
284 1 9.7671 -3.41178 20.0927 -0.0246001 0.0114483 -0.00138774
285 1 9.67238 -0.917163 20.1078 -0.0162294 0.0171534 -0.00739703
294 1 10.5392 -4.56995 20.0668 0.00232642 -0.0186988 0.00491273
295 1 10.492 -2.07959 20.0537 -0.0350177 -0.0146492 0.00798441
306 1 12.6496 -5.55341 19.9999 0 0 0
307 1 11.9041 -4.32686 19.9999 0 0 0
308 1 12.647 -3.09734 19.9999 0 0 0
309 1 11.9037 -1.86828 19.9999 0 0 0
310 1 12.6457 -0.637745 19.9999 0 0 0
323 1 14.0539 -5.56516 19.9999 0 0 0
324 1 14.0472 -3.10129 19.9999 0 0 0
325 1 14.0438 -0.638188 19.9999 0 0 0
71 1 -13.6826 0.591886 19.9999 0 0 0
72 1 -13.0424 1.82079 19.9999 0 0 0
73 1 -13.6895 3.04359 19.9999 0 0 0
74 1 -13.0413 4.27397 19.9999 0 0 0
75 1 -13.7195 5.48914 19.9999 0 0 0
86 1 -11.5623 1.82169 19.9999 0 0 0
87 1 -11.5564 4.27485 19.9999 0 0 0
96 1 -11.0366 0.59333 20.023 0.0246093 0.00152603 0.00208694
97 1 -10.9574 3.0424 20.0251 0.0189325 -0.0010366 0.00168587
98 1 -10.9507 5.56365 20.0167 0.0170874 -0.00459747 0.000957302
111 1 -9.60239 0.647772 20.0692 0.0402635 -0.00613515 0.00419596
112 1 -8.97712 1.93337 20.0233 0.0159738 -0.00697321 -0.00390699
113 1 -9.55596 3.29292 20.0581 0.0184609 0.00131597 0.00157125
114 1 -8.88533 4.47072 20.0543 0.0221514 -0.000414564 0.000489022
115 1 -9.54068 5.713 20.0577 0.0181763 0.0137894 0.00157038
126 1 -7.58048 1.88225 19.7966 0.0224187 0.00864035 -0.010657
127 1 -7.29262 4.51529 19.9677 0.0181288 -0.00234168 -0.00366912
136 1 -6.88828 0.479567 19.7794 0.019138 -0.00875443 0.00920507
137 1 -6.74902 3.14762 19.65 -0.010545 -0.00520173 0.000633148
138 1 -6.67911 5.70657 20.1149 -0.000548358 -0.00729573 -0.00673132
151 1 -5.49084 0.318427 20.1857 0.010059 -0.0251639 0.0378131
152 1 -4.62007 1.76167 20.1121 0.0276644 -0.00836115 -0.00393103
153 1 -5.24592 2.9225 19.4176 0.0427889 -0.0167931 -0.00077249
154 1 -4.67235 4.57828 19.2353 0.0354104 -0.0106808 -0.0240272
155 1 -5.31077 5.72107 19.8872 -0.0134272 -0.0227298 -0.00679436
166 1 -4.87786 1.40202 21.349 -0.0345986 -0.0192085 -0.013481
167 1 -3.51139 5.00528 18.3889 0.0168903 -0.0396273 -0.00944048
176 1 -1.49515 4.5727 21.3765 0.00542289 0.0391622 0.00553996
178 1 -2.45844 5.96051 19.1865 -0.00855222 -0.0167068 -0.014891
191 1 -3.12831 5.11221 21.5661 -0.000346202 0.0584047 0.0942859
194 1 -1.74456 5.01887 20.723 -0.0549402 0.0230907 -0.00865609
195 1 -1.18096 5.4639 19.5817 -0.0146487 -0.00558489 -0.015797
207 1 2.73772 5.37855 21.2141 0.0299617 0.0399334 0.0558515
217 1 4.25842 4.99071 21.3933 0.00766056 0.00607881 -0.00845462
218 1 2.3255 6.01314 19.4899 0.0194643 -0.042905 -0.0136183
232 1 7.37457 3.04235 21.827 0.0321239 0.0139729 0.0308201
234 1 4.44441 4.9698 19.8307 0.0282457 -0.0136808 0.00100019
235 1 3.64315 6.04193 19.0909 0.0408542 -0.0315894 -0.00501909
246 1 6.30371 1.98157 19.9693 -0.0462159 -0.0101397 0.0235425
247 1 5.84475 4.7406 19.6326 0.00436717 -0.000202357 0.0142262
256 1 6.69759 0.594572 20.1317 -0.0447286 0.0107643 0.020287
257 1 6.54853 3.21725 19.7034 -0.00304931 -0.011822 0.0151229
258 1 6.62114 6.0388 19.5668 0.0161163 -0.000803336 -0.0112796
275 1 7.9564 5.8535 19.9492 0.0124265 -0.0128545 -0.0111421
273 1 7.9095 3.29414 19.5724 -0.0106448 -0.00292861 -0.0141401
271 1 7.96767 0.631716 19.7442 -0.0281781 0.0226395 -0.00652484
272 1 8.48906 2.02361 19.7356 -0.00786577 -0.0255724 -0.0145629
274 1 8.35535 4.5874 20.0412 -0.0188725 -0.00447106 -0.00967949
286 1 9.72148 1.89098 20.0304 -0.0357292 0.00790801 -0.00356104
287 1 9.74671 4.48377 20.0588 -0.0210386 -0.0120651 0.00572624
296 1 10.5684 0.502791 20.0392 -0.0393168 0.00144793 0.00731205
297 1 10.4687 3.07628 20.0487 0.00751316 0.0328862 0.00219959
298 1 10.3778 5.62305 20.0101 -0.00271744 -0.015735 0.00205358
311 1 11.9034 0.592385 19.9999 0 0 0
312 1 12.6457 1.82255 19.9999 0 0 0
313 1 11.9038 3.05326 19.9999 0 0 0
314 1 12.6466 4.28301 19.9999 0 0 0
315 1 11.9041 5.51379 19.9999 0 0 0
326 1 14.0439 1.82305 19.9999 0 0 0
327 1 14.0468 4.28589 19.9999 0 0 0
76 1 -13.0678 6.73987 19.9999 0 0 0
77 1 -13.743 7.99662 19.9999 0 0 0
78 1 -13.076 9.22053 19.9999 0 0 0
79 1 -13.6781 10.6114 19.9999 0 0 0
80 1 -13.0646 11.9529 19.9999 0 0 0
88 1 -11.5395 6.7281 19.9999 0 0 0
89 1 -11.5535 9.18478 19.9999 0 0 0
90 1 -11.7099 11.6077 19.9999 0 0 0
99 1 -11.0225 7.99463 20.003 -0.00157028 0.00969977 -4.60065e-05
100 1 -10.9027 10.4758 19.9999 0 0 0
116 1 -8.87391 6.88339 20.0277 0.0204648 0.000122552 0.00268311
117 1 -9.60118 8.08081 20.005 0.0182194 -0.0242438 -0.000281794
118 1 -8.88945 9.29602 20.0033 0.0284086 -0.0204573 -0.000622885
119 1 -9.37207 10.4804 19.9999 0 0 0
120 1 -8.62688 11.6228 19.9999 0 0 0
130 1 -7.38724 11.6024 19.9999 0 0 0
128 1 -7.37795 6.92601 20.1067 0.00828916 -0.0280597 0.0061897
129 1 -7.41829 9.28782 19.9931 0.00632609 -0.0384152 -0.000483407
139 1 -6.76501 8.11061 20.0608 0.0151156 -0.0517133 0.00737884
140 1 -6.60892 10.469 19.9999 0 0 0
156 1 -4.54084 6.72166 20.0515 0.0183188 -0.0113415 -0.0142142
157 1 -5.32832 7.84597 20.1633 -0.00180749 0.0014352 0.00511181
158 1 -4.56633 8.99308 20.0249 0.0220752 -0.00228261 0.00919957
159 1 -5.14663 10.4689 19.9999 0 0 0
160 1 -4.36691 11.6023 19.9999 0 0 0
168 1 -3.22187 6.99268 19.4312 0.00429612 -0.00428877 -0.00722824
169 1 -3.02663 9.03041 20.152 -0.0126945 -0.0319255 0.00630109
170 1 -3.12269 11.6018 19.9999 0 0 0
179 1 -2.29362 7.83695 20.0932 0.0164657 -0.00948517 -0.0106008
180 1 -2.34103 10.4689 19.9999 0 0 0
196 1 -0.128686 6.59716 19.5602 0.0195654 -0.01412 0.00409306
197 1 -0.997586 7.63045 19.889 0.01658 -0.0104285 -0.00343301
198 1 -0.251048 9.02596 20.0472 0.00499403 0.0006094 -0.00539415
199 1 -0.876963 10.4688 19.9999 0 0 0
200 1 -0.0953724 11.6018 19.9999 0 0 0
208 1 1.26548 6.82318 19.7139 -0.00714043 -0.00585189 -0.00289153
209 1 1.13282 9.07093 19.9846 -0.005598 -0.0170352 0.00139918
210 1 1.14924 11.6018 19.9999 0 0 0
219 1 2.091 8.05799 19.864 0.0236073 -0.037869 -0.000894587
220 1 1.93091 10.4688 19.9999 0 0 0
236 1 4.44606 7.14569 19.4851 0.0111436 -0.00194291 -0.0230637
237 1 3.54322 8.18501 19.9777 -0.0119356 -0.0343531 -0.0115015
238 1 4.2228 9.18418 20.0952 0.00337076 -0.00283485 0.0078986
239 1 3.39506 10.4687 19.9999 0 0 0
240 1 4.17656 11.6018 19.9999 0 0 0
248 1 5.82305 7.04257 19.8723 0.0111893 0.0117683 -0.0125605
249 1 5.6657 9.22261 20.0298 -0.00124605 -0.0318678 0.00410297
250 1 5.4212 11.6017 19.9999 0 0 0
259 1 6.53073 8.10855 20.0928 0.00778667 -0.0105215 0.00307646
260 1 6.20335 10.4685 19.9999 0 0 0
277 1 7.94225 8.28307 20.0344 0.00533644 -0.0102941 0.00321836
276 1 8.62943 7.16223 20.0905 0.00632586 -0.0136945 0.0020194
278 1 8.5594 9.43204 19.9975 -0.00675738 -0.0221355 -1.78565e-07
279 1 7.66711 10.4687 19.9999 0 0 0
280 1 8.44529 11.6024 19.9999 0 0 0
288 1 9.87507 7.12948 20.0368 -0.0109958 -0.000159377 0.00283035
289 1 9.85457 9.4467 20.0029 -0.000643296 -0.00846152 -0.000164033
290 1 9.6873 11.6101 19.9999 0 0 0
299 1 10.61 8.29685 19.9994 -0.00870953 -0.0209599 9.45557e-05
300 1 10.4752 10.4755 19.9999 0 0 0
316 1 12.6473 6.74288 19.9999 0 0 0
317 1 11.9051 7.97805 19.9999 0 0 0
318 1 12.6583 9.19198 19.9999 0 0 0
319 1 11.9246 10.4937 19.9999 0 0 0
320 1 12.7709 11.5297 19.9999 0 0 0
328 1 14.0456 6.75188 19.9999 0 0 0
329 1 14.0237 9.17042 19.9999 0 0 0
330 1 13.9415 11.792 19.9999 0 0 0
175 1 -5.27716 -3.28396 22.1976 0.0100872 0.0112826 0.0546564
189 1 -0.847066 -0.870272 22.3023 0.0148721 0.00332577 0.0115306
228 1 3.73335 -6.02258 23.4205 -0.07142 -0.0274134 0.0128357
192 1 -5.33573 3.53997 23.4706 -0.0589932 0.0585373 0.0624031
206 1 2.10162 0.883832 23.088 0.035776 0.0876235 0.0517749
215 1 3.86607 1.26713 23.9123 0.04166 -0.0481372 0.0644428
233 1 5.41973 5.06605 23.6926 0.0805761 0.0203962 0.0348453
231 1 5.90003 6.23566 23.753 -0.00904406 0.0984201 0.0654261
193 1 -0.616755 6.43898 23.3374 0.0226936 0.0467976 0.0528288
177 1 -1.47284 6.85024 24.2978 0.0345588 0.0560811 0.0888294
216 1 2.94533 -3.92042 30.4048 0.0449149 -0.0625208 0.193083
7 1 -0.179059 -6.82566 42.6742 -0.0405822 -0.10713 0.437923
8 1 -1.66732 -6.57916 42.3602 0.0114924 -0.096276 0.443221
27 1 -6.01861 -0.38967 44.4988 -0.0886247 0.0313224 0.515856
28 1 -2.34266 -3.07011 45.2556 -0.00628692 -0.014065 0.474813
44 1 -2.86645 -1.99137 45.5109 -0.0204425 -0.0588005 0.47616
52 1 -1.54068 -3.75081 46.2121 -0.00546562 -0.042623 0.503899
26 1 1.74008 -2.15287 45.0619 -0.0319094 0.0177167 0.471269
40 1 3.08734 -1.73301 45.4519 0.0176848 -0.00218307 0.479816
16 1 3.13516 -1.32797 46.9394 -0.00898603 0.0292994 0.538519
35 1 0.59437 -2.23081 45.8357 -0.0141721 -0.00155313 0.459014
42 1 -4.95747 0.332909 45.1517 -0.0278589 -0.0441823 0.477735
32 1 -2.06531 1.21533 44.8562 0.0171913 0.00128715 0.472667
10 1 -0.967114 2.19146 44.3725 -0.0478539 -0.0293368 0.438948
18 1 -4.80039 1.20564 46.3697 -0.0146874 0.0221975 0.532292
56 1 -1.9287 1.53413 46.4905 0.0381701 0.0111136 0.488523
25 1 2.76812 1.59716 42.8509 -0.0167304 0.0269081 0.487206
49 1 1.90508 2.96567 43.236 0.0203339 0.0341728 0.45314
51 1 0.708573 2.43242 43.4995 0.0463017 0.0258819 0.450753
38 1 2.99091 1.39475 44.2785 0.0303826 0.00543824 0.479923
31 1 2.40157 3.57946 44.4928 0.0125092 0.0598184 0.452956
55 1 1.89257 2.66253 45.5929 0.000259585 0.0270647 0.453619
14 1 2.44898 1.31232 45.8014 0.0110982 0.026211 0.46872
20 1 -2.22116 -1.72874 47.2915 0.0392867 -0.0234064 0.529767
36 1 -0.316579 -2.96452 47.0139 0.00593118 0.00914118 0.446317
50 1 -0.750864 -1.54388 46.9323 -0.0189932 0.013624 0.483579
4 1 -3.39236 -0.996071 47.6395 -0.023139 -0.00827092 0.489851
60 1 -2.14129 -2.65871 48.3027 -0.0363898 -0.0425496 0.489341
12 1 -0.900619 -4.07413 48.4872 -0.0179776 0.0292673 0.454338
58 1 -2.11044 -2.57056 49.5238 0.0156652 -0.0135872 0.483943
19 1 -3.07011 -1.03038 49.5103 0.0232226 -0.0139005 0.450565
34 1 -1.76033 -2.93767 50.7733 -0.0335431 0.0141475 0.483502
43 1 -2.56535 -0.0628731 50.5502 0.0130733 0.0100396 0.459686
11 1 -0.691097 -3.46764 49.7577 -0.0542867 -0.0205262 0.481637
48 1 -0.987146 -2.13206 51.7788 -0.0304471 -0.0125818 0.483958
24 1 -1.71464 -0.925486 52.1416 -0.0121048 0.0288748 0.487871
59 1 2.74312 -2.60938 47.7896 0.0369687 0.00345569 0.473237
57 1 2.38605 -1.71635 49.0265 0.0105442 0.0412287 0.480507
15 1 2.14447 -0.287566 49.1804 0.0241561 -0.0585929 0.438261
33 1 0.433217 -1.81392 50.9685 0.0052488 0.0356758 0.520345
46 1 0.510729 -0.589537 51.2537 -0.0360483 0.00677453 0.507432
9 1 0.0641432 3.81364 47.5741 -0.0154899 0.0177588 0.496742
54 1 -1.61574 0.797111 47.4467 0.0115971 -0.0182506 0.499959
3 1 -4.01048 0.0274151 47.0555 -0.047556 -0.0268802 0.470144
17 1 -2.96192 1.62449 47.7726 -0.0204963 0.0197433 0.508141
30 1 -1.31444 3.68062 48.5656 0.00789453 0.0114935 0.48351
41 1 -2.39596 1.15623 49.5491 -0.00731117 0.00366601 0.495815
47 1 -1.47682 3.55399 49.9401 -0.0071285 0.00795887 0.523461
45 1 -1.06563 5.8501 50.1983 -0.0469032 0.0684268 0.504373
23 1 -2.15154 2.51446 50.4347 0.00693365 -0.000953649 0.477077
21 1 -0.480143 4.49803 50.7172 -0.021726 -0.00823109 0.496859
5 1 -0.646107 1.70173 51.9184 -0.0178528 0.0374541 0.54155
1 1 3.2346 1.35353 47.2301 0.0153035 0.00376607 0.473333
2 1 2.71846 0.195768 47.7088 0.00317521 -0.00567177 0.442049
29 1 1.24816 3.4443 47.9624 0.0201513 -0.030194 0.517759
53 1 2.18416 2.68393 49.1781 -0.0287562 0.0333299 0.524952
13 1 3.27619 1.92395 48.7827 0.00228439 -0.0108815 0.47131
37 1 3.7146 1.33089 50.203 -0.0175582 0.0229556 0.527857
39 1 2.26603 0.612696 50.3827 0.0232602 0.0108569 0.463678
6 1 0.733146 2.01862 51.529 0.0403168 -0.0278042 0.500243
22 1 1.22753 0.842466 51.5305 -0.00121665 -0.00329416 0.484653
