ITEM: TIMESTEP
45600
ITEM: NUMBER OF ATOMS
330
ITEM: BOX BOUNDS pp pp pp
-1.4715758017245314e+01 1.5057610017245315e+01
-1.2710055654020760e+01 1.2664508654020761e+01
-5.0001035148846022e+01 1.0000103514884636e+02
ITEM: ATOMS id type x y z vx vy vz
61 1 -13.6674 -11.9461 19.9999 0 0 0
62 1 -13.1228 -10.6724 19.9999 0 0 0
63 1 -13.7825 -9.34696 19.9999 0 0 0
64 1 -13.0772 -8.00396 19.9999 0 0 0
65 1 -13.7542 -6.79742 19.9999 0 0 0
81 1 -11.507 -10.5408 19.9999 0 0 0
82 1 -11.5331 -8.01671 19.9999 0 0 0
91 1 -10.7591 -11.6424 19.9999 0 0 0
92 1 -10.8524 -9.24807 19.9934 0.0199031 0.00738522 -0.000758769
93 1 -10.7863 -6.77597 19.9808 0.00694232 -0.00269939 -0.000179063
101 1 -9.52473 -11.6468 19.9999 0 0 0
102 1 -8.74136 -10.5124 19.9999 0 0 0
103 1 -9.44986 -9.28219 19.9754 0.0192902 0.00777153 -0.00115805
104 1 -8.82581 -7.97245 20.0482 0.0350461 0.0176835 0.00475125
105 1 -9.47153 -6.77047 20.0751 0.00306894 0.0102144 0.00384545
121 1 -7.27873 -10.5146 19.9999 0 0 0
122 1 -7.45558 -7.94662 20.1795 0.0274173 0.0106216 0.00644718
131 1 -6.50232 -11.6488 19.9999 0 0 0
132 1 -6.61406 -9.10166 20.0092 0.0350021 0.00694557 0.00798691
133 1 -6.74381 -6.63975 20.2545 -0.00549277 0.0173959 -0.00502337
141 1 -5.25854 -11.6473 19.9999 0 0 0
142 1 -4.47674 -10.5145 19.9999 0 0 0
143 1 -5.14382 -9.05711 20.1655 0.0230252 0.0242664 6.78827e-05
144 1 -4.40613 -7.6707 20.0895 0.022343 0.0245144 -0.0196625
145 1 -5.35774 -6.71565 19.6689 0.0214005 0.0191409 -0.0242077
161 1 -3.01281 -10.5144 19.9999 0 0 0
162 1 -2.86985 -7.93452 19.7813 0.0271369 -0.00112201 -0.014792
171 1 -2.23133 -11.6474 19.9999 0 0 0
172 1 -2.20458 -9.13592 20.2093 0.0258746 -0.0146567 0.000752143
173 1 -2.12928 -6.70937 19.3739 0.0169425 0.00562678 0.0119181
181 1 -0.986751 -11.6474 19.9999 0 0 0
182 1 -0.205108 -10.5143 19.9999 0 0 0
183 1 -0.818175 -9.10967 20.0824 0.0275345 0.0215388 -0.0294169
184 1 0.0800271 -8.01179 19.2999 0.0114 0.0137306 -0.0198214
185 1 -0.477688 -6.61693 19.3009 0.0261397 0.00623346 0.0297252
201 1 1.25901 -10.5143 19.9999 0 0 0
202 1 1.6904 -7.95037 19.2849 -0.00219499 0.0130624 -0.0160753
211 1 2.0406 -11.6474 19.9999 0 0 0
212 1 2.07789 -9.17961 19.9826 -0.0164045 0.0056311 -0.0239542
213 1 2.38622 -6.63793 19.6046 -0.0199782 0.008738 0.0238191
221 1 3.28523 -11.6473 19.9999 0 0 0
222 1 4.06705 -10.5143 19.9999 0 0 0
223 1 3.53237 -8.99939 20.1806 -0.0201379 0.0118868 -0.0122016
224 1 4.29993 -7.89821 19.6656 -0.0212449 0.00803396 -0.00351887
225 1 3.73067 -6.53951 19.257 0.0415696 0.0349456 0.0046571
241 1 5.53108 -10.5143 19.9999 0 0 0
242 1 5.70345 -7.81495 20.0394 -0.0204559 0.00624225 -0.0190069
251 1 6.31174 -11.6474 19.9999 0 0 0
252 1 6.31992 -9.18534 20.1872 -0.012644 0.0197831 -5.15092e-05
253 1 6.70322 -6.76858 19.4754 -0.00983407 0.0105985 -0.0145344
261 1 7.55524 -11.6498 19.9999 0 0 0
203 1 1.8604 -6.41016 21.0087 0.0244822 -0.0147326 0.0393175
265 1 8.01645 -6.91128 20.0302 -0.0164357 0.0132863 -0.00731742
263 1 7.6908 -9.25212 20.0366 -0.0281448 0.00371984 0.00765128
262 1 8.33779 -10.5154 19.9999 0 0 0
264 1 8.56998 -8.15158 20.1718 -0.00979685 0.00649426 0.00821909
281 1 9.79556 -10.5245 19.9999 0 0 0
282 1 9.89418 -8.18822 20.0575 -0.00532967 0.0214068 0.004388
291 1 10.5816 -11.6418 19.9999 0 0 0
292 1 10.4942 -9.34883 19.9754 -0.0031002 0.0150997 -0.00193929
293 1 10.6307 -7.04966 20.0778 0.0112822 0.0242772 0.00502823
301 1 11.8019 -11.7522 19.9999 0 0 0
302 1 12.7161 -10.5156 19.9999 0 0 0
303 1 11.8934 -9.22642 19.9999 0 0 0
304 1 12.655 -8.00627 19.9999 0 0 0
305 1 11.8992 -6.77596 19.9999 0 0 0
321 1 14.087 -10.4984 19.9999 0 0 0
322 1 14.0714 -8.01298 19.9999 0 0 0
66 1 -13.0658 -5.54976 19.9999 0 0 0
67 1 -13.7179 -4.30197 19.9999 0 0 0
68 1 -13.0406 -3.0891 19.9999 0 0 0
69 1 -13.6883 -1.86008 19.9999 0 0 0
70 1 -13.0424 -0.636745 19.9999 0 0 0
83 1 -11.5387 -5.54743 19.9999 0 0 0
84 1 -11.5566 -3.09089 19.9999 0 0 0
85 1 -11.5625 -0.637245 19.9999 0 0 0
94 1 -10.7779 -4.33779 20.0252 -0.00757854 0.0026942 0.00331912
95 1 -10.7215 -1.91657 20.0693 -0.0181258 0.00218985 0.00178654
106 1 -8.66681 -5.69487 20.2712 0.0108518 0.00864556 0.00938244
107 1 -9.31749 -4.48543 20.2194 -0.00277149 0.00972547 0.00780579
108 1 -8.54611 -3.32272 20.1861 0.0262352 0.0178083 0.00397758
109 1 -9.23149 -2.03886 20.1629 0.0162949 -0.00124713 0.00428564
110 1 -8.62029 -0.760403 19.9601 0.0292294 0.00381006 -0.00451899
123 1 -7.36073 -5.51204 20.2562 0.0101837 0.0326817 -0.00512165
124 1 -7.36286 -3.30564 19.6369 0.0215569 -0.0113108 -0.0259436
125 1 -7.33624 -0.661924 19.447 0.0325654 0.00106901 -0.0222129
134 1 -6.59636 -4.49743 19.6366 -0.00503488 0.00968334 -0.0206745
135 1 -7.03801 -2.05148 19.1364 -0.00100638 0.018839 -0.013623
146 1 -4.47435 -5.68458 18.8824 0.00780443 0.00324614 0.00869964
147 1 -5.4309 -4.55908 18.8095 0.0256615 0.0359661 -0.00723438
148 1 -4.80397 -3.07738 18.5654 0.0128062 0.0121922 0.0202172
149 1 -5.58157 -2.11379 19.3471 0.0106661 -0.0117268 -0.00902817
150 1 -5.63973 -1.31743 20.7361 0.0256184 -0.0446833 0.05905
163 1 -3.25288 -5.93302 19.6141 -0.0240428 0.00667698 -0.0305949
164 1 -4.45392 -4.54284 21.7964 -0.0163743 0.00305311 0.018043
165 1 -5.48631 -2.00402 21.8718 0.012392 0.00240223 -0.0277802
174 1 -3.25638 -4.62233 21.7778 0.0196813 0.0348935 0.0390449
187 1 -2.02921 -4.39335 20.5598 -0.0048907 0.0432744 0.0223171
188 1 -0.55684 -5.09548 20.98 0.0305323 0.011794 0.0135374
190 1 -2.47383 -3.15408 21.741 -0.0279309 -0.0451058 0.0308186
205 1 -2.44159 -4.8819 19.0888 -0.065583 -0.0665226 0.00159745
186 1 0.373891 -6.19885 20.8087 -0.00104462 0.0171081 0.0264153
226 1 4.83418 -5.70989 19.694 -0.00362073 -7.21724e-05 -0.000477097
227 1 4.80547 -5.77334 21.2712 0.0068929 -0.0526523 0.0406881
229 1 5.20239 -4.27873 21.0648 -0.012185 -0.00894816 0.0418629
230 1 6.76934 -0.56971 21.7682 0.0208849 0.00883792 0.00752504
243 1 6.08788 -5.74644 19.0736 -0.00880488 -0.00531295 -0.0185837
244 1 6.29655 -3.79299 20.2758 -0.0109133 -0.00168557 0.0189974
245 1 5.85403 -1.04642 20.835 -0.00861688 0.0114182 0.0408286
254 1 6.58682 -4.70306 19.185 0.000508919 0.0261444 -0.00272132
255 1 6.13473 -2.23015 20.1177 -0.0235378 0.0282725 -0.0152182
269 1 7.49373 -2.10718 19.7357 -0.013529 -0.0111675 -0.00835894
267 1 7.74859 -4.69302 19.2261 -0.0333408 0.0322892 -0.0301877
266 1 8.5987 -5.80499 20.039 -0.0186839 0.0342421 -0.00860509
268 1 8.35077 -3.40999 19.5314 0.0154005 0.0195739 -0.00490885
270 1 8.17886 -0.703708 19.6369 -0.00865236 0.0115781 -0.00114811
283 1 10.0055 -5.8578 20.2256 0.00320077 0.0189122 0.00988372
284 1 9.7402 -3.34199 20.039 0.00904648 0.00151063 -0.00941214
285 1 9.64982 -0.623626 19.9192 -0.0116541 -0.0111657 -0.0142066
294 1 10.5677 -4.57107 20.1357 -0.00361272 0.0330987 0.0027677
295 1 10.4494 -1.91307 20.1391 0.0222417 0.032714 -0.00361347
306 1 12.6496 -5.55341 19.9999 0 0 0
307 1 11.9041 -4.32686 19.9999 0 0 0
308 1 12.647 -3.09734 19.9999 0 0 0
309 1 11.9037 -1.86828 19.9999 0 0 0
310 1 12.6457 -0.637745 19.9999 0 0 0
323 1 14.0539 -5.56516 19.9999 0 0 0
324 1 14.0472 -3.10129 19.9999 0 0 0
325 1 14.0438 -0.638188 19.9999 0 0 0
71 1 -13.6826 0.591886 19.9999 0 0 0
72 1 -13.0424 1.82079 19.9999 0 0 0
73 1 -13.6895 3.04359 19.9999 0 0 0
74 1 -13.0413 4.27397 19.9999 0 0 0
75 1 -13.7195 5.48914 19.9999 0 0 0
86 1 -11.5623 1.82169 19.9999 0 0 0
87 1 -11.5564 4.27485 19.9999 0 0 0
96 1 -10.7095 0.581869 20.0669 -0.00837017 -0.00293533 0.00217493
97 1 -10.7311 3.06835 20.0518 0.00623777 -0.0165607 0.00103412
98 1 -10.7361 5.52546 20.0303 0.0036691 0.0107407 0.000599989
111 1 -9.25409 0.627449 20.1348 0.0105714 0.0081179 0.00183564
112 1 -8.52566 1.89592 19.9352 0.0333571 -0.0108556 -0.00611873
113 1 -9.21118 3.10017 20.0613 0.010403 -0.00935883 -0.00132217
114 1 -8.55624 4.39722 20.0538 -0.00446719 -0.031479 0.000782199
115 1 -9.24645 5.54818 20.0763 0.00854259 -0.0150347 0.000489709
127 1 -7.25203 4.16917 19.8566 0.0290333 -0.0130797 -0.00978437
126 1 -7.13043 1.8403 19.6798 0.0228983 -0.00273531 -0.00388064
136 1 -6.74549 0.588259 19.8228 0.00896969 -0.00208171 -0.0076174
137 1 -6.35816 3.02755 19.6454 0.0362712 -0.0114622 0.000761887
138 1 -6.5132 5.32146 19.9574 0.016249 -0.0509013 -0.0160939
151 1 -5.68369 0.016753 20.6225 -0.0366966 -0.0125687 0.00984553
152 1 -4.3145 1.88806 19.964 0.00392964 0.0229724 0.00661193
153 1 -5.04658 2.92517 19.554 -0.00350017 -0.0246595 0.0214288
154 1 -4.44108 4.1947 18.9904 0.0140728 -0.00780521 -0.0150114
155 1 -5.15055 5.36455 19.6553 0.0160345 -0.0141322 -0.0190994
166 1 -5.2289 1.11744 21.2278 0.00599071 0.00279219 -0.0195453
167 1 -3.15212 4.40738 18.3385 0.0159151 -0.0409146 0.000509974
176 1 -1.54002 5.0583 22.0406 -0.0314222 0.0425586 0.061215
178 1 -2.54188 5.63484 18.324 0.00723337 -0.0106271 -0.0407911
194 1 -2.47448 5.329 20.7145 -0.0281777 0.0295268 -0.0143892
195 1 -1.49873 5.57205 19.3832 -0.0365817 -0.000486131 0.00700238
207 1 3.23073 6.01743 21.8792 0.0360055 0.0321797 0.0331091
217 1 4.14158 5.07035 21.3391 -0.00773944 0.00300151 -0.0176085
218 1 2.63898 5.48528 19.5451 0.0156483 -0.0211466 0.00269857
234 1 4.71068 4.61426 19.8306 0.0108165 -0.0151755 0.0252392
235 1 4.00212 5.55281 19.0362 0.00492771 -0.0303375 0.00385738
246 1 5.50673 1.99278 20.3322 -0.0530422 0.0166762 0.0213282
247 1 6.16678 4.48081 19.7701 -0.00998506 -0.0275877 0.00651188
256 1 5.99244 0.532207 20.221 -0.0330177 -0.0189466 -0.0106817
257 1 6.32297 3.21189 19.8684 -0.0155574 -0.0148649 0.00913953
258 1 6.66339 5.77715 19.4518 0.00391985 -0.0136222 -0.00594647
271 1 7.40967 0.483194 19.6566 -0.0298817 -0.0169271 -0.00467631
275 1 7.91283 5.7442 19.7266 -0.0127477 -0.0315025 -0.0171707
273 1 7.62481 3.09906 19.4255 -0.0155603 -0.0307191 -0.00280431
272 1 8.28044 1.84855 19.4797 -0.0213718 -0.0111977 -0.00820297
274 1 8.44618 4.37709 19.8567 0.0306565 -0.00677083 -0.0145838
286 1 9.86982 1.92669 19.972 -0.00971437 0.01115 -0.0125963
287 1 9.8144 4.39351 20.1352 0.0156451 0.0129098 0.000518041
296 1 10.3273 0.71166 20.1324 0.0471223 0.000991808 0.00152792
297 1 10.5303 3.18041 20.0626 0.00963242 -0.017562 -9.41331e-05
298 1 10.6502 5.55341 20.0781 0.00606838 -0.0262577 0.00717732
311 1 11.9034 0.592385 19.9999 0 0 0
312 1 12.6457 1.82255 19.9999 0 0 0
313 1 11.9038 3.05326 19.9999 0 0 0
314 1 12.6466 4.28301 19.9999 0 0 0
315 1 11.9041 5.51379 19.9999 0 0 0
326 1 14.0439 1.82305 19.9999 0 0 0
327 1 14.0468 4.28589 19.9999 0 0 0
76 1 -13.0678 6.73987 19.9999 0 0 0
77 1 -13.743 7.99662 19.9999 0 0 0
78 1 -13.076 9.22053 19.9999 0 0 0
79 1 -13.6781 10.6114 19.9999 0 0 0
80 1 -13.0646 11.9529 19.9999 0 0 0
88 1 -11.5395 6.7281 19.9999 0 0 0
89 1 -11.5535 9.18478 19.9999 0 0 0
90 1 -11.7099 11.6077 19.9999 0 0 0
99 1 -10.7514 7.90026 20.0011 0.00287334 -0.00747029 -0.000344168
100 1 -10.9027 10.4758 19.9999 0 0 0
116 1 -8.62415 6.74617 20.074 -0.00508261 -0.0350212 0.00210946
117 1 -9.31269 7.93919 20.0047 0.02273 0.00502988 0.0002911
118 1 -8.50377 9.01973 19.9858 0.010114 0.0180107 -0.00121078
119 1 -9.37207 10.4804 19.9999 0 0 0
120 1 -8.62688 11.6228 19.9999 0 0 0
130 1 -7.38724 11.6024 19.9999 0 0 0
128 1 -7.35053 6.51917 20.2305 0.0299172 -0.0213497 0.00992047
129 1 -7.09978 8.91446 20.0249 0.0261107 -0.0042734 0.00493827
139 1 -6.47847 7.68985 20.1706 0.0230096 0.00590871 0.0073533
140 1 -6.60892 10.469 19.9999 0 0 0
156 1 -4.60707 6.65707 19.8004 -0.0106288 -0.00750122 -0.018876
157 1 -5.03731 7.88994 20.2001 0.0230746 0.0118033 0.00184433
158 1 -4.39746 9.17039 20.2334 -0.0210951 0.00942156 0.0119785
159 1 -5.14663 10.4689 19.9999 0 0 0
160 1 -4.36691 11.6023 19.9999 0 0 0
168 1 -3.14118 6.84355 19.4045 0.0150477 -0.0334283 -0.0175278
169 1 -2.90078 9.1294 20.1221 0.0280583 0.0318187 -0.00523704
170 1 -3.12269 11.6018 19.9999 0 0 0
179 1 -2.25719 7.84881 19.9286 0.00641111 0.0111985 -0.011376
180 1 -2.34103 10.4689 19.9999 0 0 0
196 1 -0.254681 6.34375 19.6434 0.00996006 0.00740004 0.00553176
197 1 -0.701209 7.80626 19.8643 -0.00343867 -0.00127221 -0.00356992
198 1 -0.0292627 9.08775 19.9306 0.0282503 0.0175449 -0.00620867
199 1 -0.876963 10.4688 19.9999 0 0 0
200 1 -0.0953724 11.6018 19.9999 0 0 0
208 1 1.54655 6.31188 19.5761 0.0144554 -0.0528263 -0.0102433
209 1 1.39936 9.11254 19.9931 0.0273569 0.00208814 -0.00268837
210 1 1.14924 11.6018 19.9999 0 0 0
219 1 1.97309 7.74674 19.8681 -0.00774698 0.00074826 -0.000773883
220 1 1.93091 10.4688 19.9999 0 0 0
236 1 4.58363 6.99114 19.1515 -0.00582596 -0.0244544 -0.0204905
237 1 3.63516 7.88313 19.8201 0.00489063 0.00985182 -0.00762824
238 1 4.09066 9.13965 20.142 -0.0200409 -0.0289008 -0.00386351
239 1 3.39506 10.4687 19.9999 0 0 0
240 1 4.17656 11.6018 19.9999 0 0 0
248 1 6.00192 6.91007 19.5291 0.016788 -0.0113607 -0.0246527
249 1 5.55614 9.26923 20.1693 0.00245787 0.0185033 0.0123324
250 1 5.4212 11.6017 19.9999 0 0 0
259 1 6.46959 8.1108 20.1395 -0.0349818 -0.000500029 -0.00123979
260 1 6.20335 10.4685 19.9999 0 0 0
277 1 7.86086 7.95115 20.1214 -0.00502876 -0.0228075 0.00823718
276 1 8.56894 6.77751 20.0982 0.00414091 -0.0273345 0.000415636
278 1 8.42942 9.23127 20.0059 -0.0037758 0.00114575 0.0015904
279 1 7.66711 10.4687 19.9999 0 0 0
280 1 8.44529 11.6024 19.9999 0 0 0
288 1 9.9928 6.5926 20.0904 0.000107304 -0.0292481 0.0051404
289 1 9.80321 9.10005 19.9965 -0.0101457 -0.015509 -0.000696823
290 1 9.6873 11.6101 19.9999 0 0 0
299 1 10.5379 7.90628 20.0096 0.00803377 -0.028021 0.00129428
300 1 10.4752 10.4755 19.9999 0 0 0
316 1 12.6473 6.74288 19.9999 0 0 0
317 1 11.9051 7.97805 19.9999 0 0 0
318 1 12.6583 9.19198 19.9999 0 0 0
319 1 11.9246 10.4937 19.9999 0 0 0
320 1 12.7709 11.5297 19.9999 0 0 0
328 1 14.0456 6.75188 19.9999 0 0 0
329 1 14.0237 9.17042 19.9999 0 0 0
330 1 13.9415 11.792 19.9999 0 0 0
204 1 2.97495 -7.01694 22.2373 0.0153191 0.00524509 0.0191938
214 1 4.22159 -6.62471 22.4707 0.0235133 -0.0154544 0.0276667
228 1 2.83668 -6.47475 23.2153 -0.0382342 -0.0333427 -0.0249932
175 1 -5.19043 -2.82048 22.6781 0.0137193 0.0171644 0.0196757
189 1 -0.613389 -0.811372 22.483 0.0153887 0.004156 0.0118487
191 1 -2.69397 5.82382 22.7523 0.0606622 0.0268351 0.0545129
192 1 -6.24528 4.44229 24.4293 -0.0590795 0.0586036 0.0620343
206 1 3.34995 2.04516 24.2341 0.123655 0.0373935 0.0976187
215 1 3.81218 0.715267 24.5532 -0.0459849 0.00224735 0.0182364
233 1 6.61404 6.08258 24.3415 0.0653188 0.112781 0.0512268
232 1 7.86955 3.25642 22.3756 0.0322406 0.0136925 0.0387243
193 1 -0.424124 7.24252 24.3353 0.0172761 0.0472614 0.0498415
177 1 -0.779949 7.63618 25.4815 0.0404399 0.0561683 0.0917401
231 1 5.81087 7.05083 24.6485 0.00648816 0.00622504 0.0487649
216 1 3.63702 -4.88325 33.3783 0.0449149 -0.0625209 0.193083
8 1 -1.83912 -7.96139 49.1003 0.00700848 -0.100745 0.443849
7 1 -0.455333 -8.5751 49.5044 -0.0361071 -0.102581 0.437367
26 1 1.73318 -1.78589 52.5549 -0.00706297 0.0176285 0.493623
27 1 -6.96631 0.241593 52.6252 -0.0492899 0.0429818 0.531109
32 1 -1.68602 1.38332 52.5185 0.0266502 0.0230024 0.506226
10 1 -1.65084 1.74843 50.9925 -0.0424853 -0.0329561 0.453567
25 1 2.73794 1.94861 50.582 -4.2678e-05 0.0338697 0.503806
49 1 2.28173 3.43482 50.3499 0.0271299 0.0113301 0.467856
51 1 1.06084 2.85696 50.4142 0.0172376 0.0302985 0.441414
38 1 3.32833 1.36687 51.8145 0.0207312 -0.0102996 0.489795
31 1 2.44058 4.32732 51.6376 -0.000630834 0.0450019 0.47039
55 1 2.09832 3.16803 52.5203 0.0308102 0.0237146 0.46341
28 1 -2.30316 -3.57198 52.7448 -0.0232747 -0.0207427 0.485712
44 1 -3.28119 -2.71831 52.8047 -0.0192836 -0.0559161 0.463575
42 1 -5.76718 -0.145301 52.6582 -0.0626702 -0.0205079 0.497042
52 1 -1.49189 -4.25421 53.6513 0.0245347 -0.0313225 0.471005
36 1 -0.534921 -2.73281 53.5441 -0.0363015 0.00192923 0.429568
50 1 -0.953092 -1.59528 54.3114 -0.0145703 -0.00922163 0.470748
3 1 -4.79385 -0.334414 54.3374 -0.0342828 -0.0396934 0.488877
20 1 -1.87471 -1.96793 54.9813 -0.00385467 -0.0170841 0.461872
4 1 -3.48577 -1.05118 55.4044 -0.0083103 0.000378796 0.466749
60 1 -2.65894 -3.44927 55.6009 -0.0270487 -0.0250486 0.461676
12 1 -1.14614 -3.84389 55.887 0.00113483 -0.022021 0.52112
58 1 -2.22757 -2.57675 57.145 -0.0206233 -0.019679 0.515121
19 1 -2.80704 -1.08359 56.6476 -0.00478271 -0.0264847 0.481474
11 1 -1.42196 -3.82031 57.4419 -0.0407697 -0.0194075 0.473469
34 1 -2.04577 -3.01527 58.3016 -0.0238154 -0.0112372 0.496749
43 1 -2.39102 -0.176066 57.6421 0.0244828 0.031588 0.505732
40 1 2.82624 -1.7566 52.8697 -0.023751 0.00256789 0.476044
35 1 0.513319 -2.11761 52.8973 0.0317265 0.0223088 0.439799
16 1 3.31252 -1.31348 54.0413 0.0217543 -0.00643773 0.436499
59 1 3.20729 -2.20919 55.3921 0.0154171 0.0432955 0.515129
15 1 2.55536 -0.156719 56.3793 0.0249064 0.0302683 0.446142
57 1 2.51981 -1.80462 56.6037 0.0194746 -0.0458148 0.480825
18 1 -5.02886 1.03157 54.2179 -0.0239106 -0.0140202 0.490849
56 1 -1.65154 1.53181 53.9616 0.00724617 -0.0170642 0.468911
9 1 -0.0540727 4.04054 55.3014 0.0246198 0.00631123 0.49097
54 1 -1.64918 0.787972 55.1555 -0.0152386 0.0217134 0.489242
17 1 -2.59739 1.64397 55.6795 0.0545695 -0.0117135 0.483841
30 1 -1.29836 3.91156 55.9911 -0.0214676 0.0155341 0.512399
41 1 -2.65034 1.47096 56.9941 -0.0286067 0.0149524 0.50411
47 1 -1.56529 3.63656 57.5768 -0.0177601 -0.0185976 0.479735
45 1 -1.47814 6.29787 58.1965 -0.0173804 0.0137053 0.525094
23 1 -2.16011 2.31589 57.8984 0.0198882 0.0295969 0.489204
21 1 -0.977594 5.22418 58.3652 -0.0436247 0.0587149 0.494422
14 1 2.98175 2.05441 53.0763 0.0319054 0.0753535 0.482563
1 1 3.10607 1.39861 54.6987 -0.0253842 -0.0116756 0.468024
2 1 2.71166 0.0359145 54.8108 0.0100204 -0.0114032 0.489654
29 1 1.44033 2.99545 55.8435 -0.0168544 -0.00844525 0.495804
13 1 3.17872 1.89702 55.9393 0.00179196 0.0125922 0.475188
53 1 2.02821 3.0709 57.1012 0.00776752 0.0139503 0.519725
37 1 3.27012 1.70919 57.862 -0.0267374 0.0325282 0.467566
39 1 2.40017 0.490175 57.5889 -0.00990376 -0.0070881 0.499433
22 1 1.31916 0.493724 58.5269 -0.00282959 -0.015562 0.454755
48 1 -1.32728 -1.83039 59.1608 0.00213467 0.00549411 0.479904
24 1 -1.89796 -0.632998 59.3338 -0.0296895 0.0478832 0.464296
33 1 0.148454 -1.55876 59.0912 -0.0315604 0.0205555 0.537602
46 1 0.275394 -0.120491 59.1951 0.0055657 0.0255618 0.508324
5 1 -0.176008 2.36069 60.077 0.0407579 0.055125 0.531572
6 1 0.556764 1.57744 59.5199 -0.0174483 -0.0506221 0.514049
