ITEM: TIMESTEP
41800
ITEM: NUMBER OF ATOMS
330
ITEM: BOX BOUNDS pp pp pp
-1.4715758017245314e+01 1.5057610017245315e+01
-1.2710055654020760e+01 1.2664508654020761e+01
-5.0001035148846022e+01 1.0000103514884636e+02
ITEM: ATOMS id type x y z vx vy vz
61 1 -13.6674 -11.9461 19.9999 0 0 0
62 1 -13.1228 -10.6724 19.9999 0 0 0
63 1 -13.7825 -9.34696 19.9999 0 0 0
64 1 -13.0772 -8.00396 19.9999 0 0 0
65 1 -13.7542 -6.79742 19.9999 0 0 0
81 1 -11.507 -10.5408 19.9999 0 0 0
82 1 -11.5331 -8.01671 19.9999 0 0 0
91 1 -10.7591 -11.6424 19.9999 0 0 0
92 1 -10.9757 -9.27254 19.9978 0.0101494 -0.000591251 -0.000404599
93 1 -10.9331 -6.7839 19.9838 0.0193284 0.00543991 -0.00075043
101 1 -9.52473 -11.6468 19.9999 0 0 0
102 1 -8.74136 -10.5124 19.9999 0 0 0
103 1 -9.57988 -9.31953 19.9861 0.015029 0.0103918 -0.0013519
104 1 -9.03515 -8.15656 20.0168 0.012064 0.0202474 0.00268991
105 1 -9.48341 -6.85909 20.0481 0.00762038 0.0136091 0.00364001
121 1 -7.27873 -10.5146 19.9999 0 0 0
122 1 -7.58617 -8.01654 20.1295 0.0112243 0.014799 0.00722152
131 1 -6.50232 -11.6488 19.9999 0 0 0
132 1 -6.77341 -9.17145 19.9825 0.00870606 0.00782425 -0.000433069
133 1 -6.7154 -6.89016 20.2745 0.00601827 0.0418935 -0.00337655
141 1 -5.25854 -11.6473 19.9999 0 0 0
142 1 -4.47674 -10.5145 19.9999 0 0 0
143 1 -5.32583 -9.20253 20.1322 0.0232571 0.0186081 0.00721684
144 1 -4.62562 -8.01749 20.1996 0.0329577 0.0545227 -0.00779591
145 1 -5.3561 -6.8026 19.7894 -0.0254693 0.00958338 -0.00704463
161 1 -3.01281 -10.5144 19.9999 0 0 0
162 1 -3.11997 -7.99035 19.8925 0.0378284 0.00618729 -0.0132719
171 1 -2.23133 -11.6474 19.9999 0 0 0
172 1 -2.37067 -9.12434 20.1989 0.0123628 0.0144858 0.00114754
173 1 -2.1919 -6.93917 19.295 0.0101271 0.0320089 0.00504429
181 1 -0.986751 -11.6474 19.9999 0 0 0
182 1 -0.205108 -10.5143 19.9999 0 0 0
183 1 -0.890915 -9.22627 20.1923 -0.00414686 0.00242602 0.000585043
184 1 0.0172808 -8.15487 19.5071 0.0170358 0.010071 -0.0318718
185 1 -0.645069 -6.7154 19.2044 0.013409 0.0384468 -0.00120287
201 1 1.25901 -10.5143 19.9999 0 0 0
202 1 1.56531 -8.12254 19.4777 0.0322136 0.0259886 -0.029042
211 1 2.0406 -11.6474 19.9999 0 0 0
212 1 2.21974 -9.18044 20.1115 -0.0140208 0.00368763 -0.0114035
213 1 2.27946 -6.72257 19.4946 0.0383971 0.0154085 0.0080773
221 1 3.28523 -11.6473 19.9999 0 0 0
222 1 4.06705 -10.5143 19.9999 0 0 0
223 1 3.63595 -9.15638 20.2054 -0.0121015 0.0160163 0.00465298
224 1 4.4564 -7.96859 19.7244 -0.01242 0.0111766 -0.0114176
225 1 3.72209 -6.83801 19.2067 -0.0336665 0.0459182 0.00222078
241 1 5.53108 -10.5143 19.9999 0 0 0
242 1 5.89797 -7.98318 20.1194 -0.0155463 0.0363266 -0.00591415
251 1 6.31174 -11.6474 19.9999 0 0 0
252 1 6.35041 -9.27481 20.1551 -0.00885334 0.0130537 0.00749525
253 1 6.73461 -7.01063 19.6538 -0.00294447 0.0354482 -0.0244786
261 1 7.55524 -11.6498 19.9999 0 0 0
204 1 2.64612 -6.97909 21.9194 0.0547846 -0.0196152 0.0519948
203 1 1.71473 -6.38295 20.7838 0.00648051 0.00384427 0.0189815
265 1 8.03994 -7.04818 20.0559 0.00492468 0.0195187 -0.00105917
263 1 7.83328 -9.29104 19.996 0.000148217 0.0064569 0.00241202
262 1 8.33779 -10.5154 19.9999 0 0 0
264 1 8.62696 -8.20486 20.1165 -0.00540063 0.00934974 0.00637875
281 1 9.79556 -10.5245 19.9999 0 0 0
282 1 9.92315 -8.33085 20.0295 -0.00320207 0.0153173 0.00295828
291 1 10.5816 -11.6418 19.9999 0 0 0
292 1 10.5732 -9.43831 19.988 -0.0152244 0.00707698 -0.00133504
293 1 10.5583 -7.17344 20.0473 0.00290808 0.00604819 0.00325996
301 1 11.8019 -11.7522 19.9999 0 0 0
302 1 12.7161 -10.5156 19.9999 0 0 0
303 1 11.8934 -9.22642 19.9999 0 0 0
304 1 12.655 -8.00627 19.9999 0 0 0
305 1 11.8992 -6.77596 19.9999 0 0 0
321 1 14.087 -10.4984 19.9999 0 0 0
322 1 14.0714 -8.01298 19.9999 0 0 0
66 1 -13.0658 -5.54976 19.9999 0 0 0
67 1 -13.7179 -4.30197 19.9999 0 0 0
68 1 -13.0406 -3.0891 19.9999 0 0 0
69 1 -13.6883 -1.86008 19.9999 0 0 0
70 1 -13.0424 -0.636745 19.9999 0 0 0
83 1 -11.5387 -5.54743 19.9999 0 0 0
84 1 -11.5566 -3.09089 19.9999 0 0 0
85 1 -11.5625 -0.637245 19.9999 0 0 0
94 1 -10.7951 -4.3546 20.0096 0.0150542 -0.00255521 0.00111935
95 1 -10.7498 -1.89146 20.0507 0.0298638 -0.00556651 0.00330193
106 1 -8.78015 -5.72287 20.203 0.0125683 0.00352849 0.00822879
107 1 -9.3808 -4.53493 20.1563 0.020908 0.00308863 0.00859892
108 1 -8.79623 -3.36633 20.1639 0.034301 -0.00949264 0.00272229
109 1 -9.40582 -2.06447 20.129 0.024913 0.00740531 0.00446561
110 1 -8.87698 -0.714122 20.0085 0.0313658 -0.00717039 -0.00644649
123 1 -7.37964 -5.7078 20.2769 -0.00463315 0.0124353 0.00188213
124 1 -7.47253 -3.30821 19.8265 0.00514845 0.016235 -0.0237804
125 1 -7.55749 -0.716194 19.591 0.0147308 0.0136972 -0.0192034
134 1 -6.62184 -4.53436 19.7843 0.0156841 0.00309088 -0.018974
135 1 -7.046 -2.09882 19.2067 0.0187238 -0.00465353 9.61164e-05
146 1 -4.6325 -5.79758 18.9681 0.02418 0.0306278 -0.0296158
147 1 -5.52347 -4.71853 18.8682 0.0102246 -0.00261335 -0.00917554
148 1 -4.98244 -3.22256 18.4995 0.0299694 0.0259018 -0.000831485
149 1 -5.59854 -2.04254 19.3833 -0.0081765 -0.00872653 -0.00122603
150 1 -5.72316 -1.15477 20.4479 -0.0227489 0.0199733 -0.00994462
163 1 -3.2816 -5.79518 19.7018 0.0122389 -0.0228764 0.0126463
164 1 -4.49829 -4.49826 21.7495 0.0178348 -0.0176755 -0.00415419
165 1 -5.59915 -1.89102 21.8612 0.0143376 -0.0214875 0.0278281
174 1 -3.18028 -4.72176 21.3822 -0.0139961 -0.000789633 0.0513007
187 1 -1.89827 -4.64871 20.5803 -0.0255489 0.0174947 -0.0174747
188 1 -0.693637 -5.28769 20.8681 -0.00571842 0.0439496 0.0130955
190 1 -2.30706 -2.96245 21.4808 -0.0180411 -0.0175225 0.0333091
205 1 -1.95863 -4.25859 19.0468 -0.0571371 -0.083192 0.0135789
186 1 0.265158 -6.20339 20.5385 0.0334956 -0.0148882 0.0399804
226 1 4.74428 -5.78727 19.6556 0.0275725 0.0211508 0.0187843
227 1 4.72622 -5.3358 21.031 0.0192168 -0.0535487 0.0134352
229 1 5.28229 -4.26387 20.8528 -0.0121214 -0.00124891 0.0151872
230 1 6.57337 -0.677819 21.7259 0.0319434 0.0206098 0.00414468
243 1 6.00246 -5.91228 19.1678 0.0125206 0.023034 -0.00892839
244 1 6.30647 -3.76937 20.1531 0.0128087 -0.00557161 0.00975335
245 1 5.91168 -0.997766 20.6274 -0.0149589 -0.0104274 0.0217733
254 1 6.65586 -4.6505 19.2004 -0.0192405 -0.00434928 0.00332163
255 1 6.38404 -2.44077 20.1523 -0.0362438 0.00459715 -0.0012544
267 1 8.1609 -4.88974 19.5156 -0.0493779 0.0131271 -0.0346881
269 1 7.68269 -2.07366 19.7537 -0.0262531 0.00665379 0.00165755
266 1 8.71825 -5.93312 20.0473 -0.0147141 0.012161 2.9672e-05
268 1 8.32008 -3.46011 19.6233 -0.0155394 -0.00628578 -0.0188307
270 1 8.27225 -0.797382 19.6748 -0.0175084 -0.0036788 -0.0084844
283 1 9.97756 -5.95419 20.1532 0.00133605 0.00581209 0.0089119
284 1 9.68219 -3.32641 20.0758 0.00704311 0.00437834 -0.000797549
285 1 9.68593 -0.684385 20.0267 0.00697984 0.0275949 -0.0119717
294 1 10.5606 -4.67574 20.1065 0.00297749 -0.00512146 0.00481909
295 1 10.2982 -2.11525 20.1184 0.00110073 0.0110847 0.00719291
306 1 12.6496 -5.55341 19.9999 0 0 0
307 1 11.9041 -4.32686 19.9999 0 0 0
308 1 12.647 -3.09734 19.9999 0 0 0
309 1 11.9037 -1.86828 19.9999 0 0 0
310 1 12.6457 -0.637745 19.9999 0 0 0
323 1 14.0539 -5.56516 19.9999 0 0 0
324 1 14.0472 -3.10129 19.9999 0 0 0
325 1 14.0438 -0.638188 19.9999 0 0 0
71 1 -13.6826 0.591886 19.9999 0 0 0
72 1 -13.0424 1.82079 19.9999 0 0 0
73 1 -13.6895 3.04359 19.9999 0 0 0
74 1 -13.0413 4.27397 19.9999 0 0 0
75 1 -13.7195 5.48914 19.9999 0 0 0
86 1 -11.5623 1.82169 19.9999 0 0 0
87 1 -11.5564 4.27485 19.9999 0 0 0
96 1 -10.7809 0.603982 20.0458 0.0302779 -0.00110681 0.00334458
97 1 -10.8121 3.09286 20.0399 0.0141609 0.00995444 0.00189161
98 1 -10.8096 5.4932 20.0244 0.0164551 -0.00808946 0.000947813
111 1 -9.35825 0.571743 20.1037 0.0194857 -0.0020664 0.00475772
112 1 -8.78555 1.91436 19.983 0.0320628 0.00228208 -0.00624243
113 1 -9.38809 3.21774 20.0665 0.0283497 -0.0186193 0.000235803
114 1 -8.61997 4.49846 20.0512 0.0268707 0.00296827 -0.000412238
115 1 -9.39765 5.69038 20.0692 0.0219366 -0.0189734 0.0012849
126 1 -7.33825 1.90734 19.7185 0.0329204 -0.00567017 -0.00762715
127 1 -7.30606 4.32266 19.9181 -0.00974876 -0.0327227 -0.00769872
136 1 -6.74456 0.475501 19.8606 0.0120032 0.00308576 0.00780522
137 1 -6.70426 3.10659 19.6588 0.0318978 -0.00889849 -0.000842266
138 1 -6.65745 5.63293 20.0636 0.0107902 -0.020061 -0.00852242
151 1 -5.50181 0.118317 20.4411 -0.0108087 -0.0129655 0.0295875
152 1 -4.39859 1.71557 19.9912 0.0242985 0.0017562 -0.00889572
153 1 -5.02129 3.0305 19.413 0.00684134 0.0197963 0.00397251
154 1 -4.50065 4.36441 19.0892 0.00658536 -0.0335211 -0.0109953
155 1 -5.27847 5.46599 19.7755 0.0206808 -0.0276673 -0.0181316
166 1 -5.13957 1.22881 21.3702 -0.0258466 -0.0220168 -0.00584705
167 1 -3.35897 4.69853 18.364 0.0290369 -0.034708 -0.00284022
176 1 -1.4685 4.81355 21.5896 -0.00439703 0.03062 0.0430466
178 1 -2.57076 5.82836 18.7695 -0.00216893 -0.0318273 -0.0610139
194 1 -2.12577 5.11045 20.8086 -0.0500877 0.0172465 0.00243006
195 1 -1.2775 5.53107 19.4084 -0.0191679 0.0153697 -0.0191556
207 1 3.04662 5.68606 21.5767 0.0273753 0.0445225 0.0420142
217 1 4.17381 5.0618 21.3547 -0.00864618 0.00537769 0.0080927
218 1 2.48396 5.68433 19.4978 0.0226564 -0.0359656 0.00733637
234 1 4.61353 4.79748 19.8294 0.0116294 -0.0285706 -0.0113504
235 1 3.94369 5.78708 19.0284 0.0242749 -0.0289795 -0.00483145
246 1 5.91505 1.8612 20.1632 -0.0523076 -0.000362941 0.0237872
247 1 6.03757 4.71062 19.7131 0.0404492 -0.0212114 0.00735958
256 1 6.29144 0.681396 20.24 -0.0461639 -0.00355204 0.00517428
257 1 6.42726 3.23109 19.8043 -0.0153863 0.00653771 0.00977803
258 1 6.66756 5.87029 19.4954 -0.00392513 -0.0204975 -0.00678226
275 1 7.9883 5.83594 19.8499 -0.00194934 0.00187125 -0.0141876
273 1 7.83529 3.2793 19.4736 -0.0237343 -0.00987062 -0.00914464
271 1 7.71447 0.716144 19.6847 -0.0436257 -0.0205328 -0.00414741
272 1 8.42121 1.86517 19.6089 -0.0117003 -0.00609617 -0.0189195
274 1 8.287 4.47171 19.9476 0.0055259 -0.0201185 -0.0121012
286 1 9.72118 1.90149 20.0079 0.0298948 -0.00456466 -0.00136521
287 1 9.68409 4.35474 20.1068 0.00949887 -0.00983528 0.00595259
296 1 10.2153 0.580021 20.0986 -0.0247845 0.0267579 0.00612083
297 1 10.499 3.2464 20.0611 -0.00186941 0.0044539 0.000686037
298 1 10.5216 5.62881 20.0341 0.0265796 0.00653934 0.00428993
311 1 11.9034 0.592385 19.9999 0 0 0
312 1 12.6457 1.82255 19.9999 0 0 0
313 1 11.9038 3.05326 19.9999 0 0 0
314 1 12.6466 4.28301 19.9999 0 0 0
315 1 11.9041 5.51379 19.9999 0 0 0
326 1 14.0439 1.82305 19.9999 0 0 0
327 1 14.0468 4.28589 19.9999 0 0 0
76 1 -13.0678 6.73987 19.9999 0 0 0
77 1 -13.743 7.99662 19.9999 0 0 0
78 1 -13.076 9.22053 19.9999 0 0 0
79 1 -13.6781 10.6114 19.9999 0 0 0
80 1 -13.0646 11.9529 19.9999 0 0 0
88 1 -11.5395 6.7281 19.9999 0 0 0
89 1 -11.5535 9.18478 19.9999 0 0 0
90 1 -11.7099 11.6077 19.9999 0 0 0
99 1 -10.9078 8.00694 20.0025 0.0293177 -0.00925488 -9.13874e-05
100 1 -10.9027 10.4758 19.9999 0 0 0
116 1 -8.66059 6.89757 20.0542 0.0201815 -0.00443418 0.00336082
117 1 -9.46373 7.94004 20.0034 0.0160147 -0.00780802 -3.28253e-05
118 1 -8.62715 9.07727 19.9965 0.0266079 -0.0275644 -0.00123135
119 1 -9.37207 10.4804 19.9999 0 0 0
120 1 -8.62688 11.6228 19.9999 0 0 0
130 1 -7.38724 11.6024 19.9999 0 0 0
128 1 -7.41562 6.70431 20.1569 -0.00584297 -0.0274433 0.00781763
129 1 -7.33316 9.04359 19.9957 0.0248488 -0.0244322 0.00191287
139 1 -6.63717 7.74965 20.1196 0.0171349 -0.0301058 0.00698988
140 1 -6.60892 10.469 19.9999 0 0 0
156 1 -4.45654 6.69907 19.9202 -0.00992518 -0.000541846 -0.0156802
157 1 -5.24747 7.87283 20.1955 0.02534 -0.000992495 0.0015605
158 1 -4.33784 9.07191 20.1227 0.0164339 0.0157176 0.0150288
159 1 -5.14663 10.4689 19.9999 0 0 0
160 1 -4.36691 11.6023 19.9999 0 0 0
168 1 -3.21651 6.96029 19.4329 0.00412256 -0.00454684 0.00299374
169 1 -3.12728 8.96481 20.1668 0.0119861 0.00935139 -0.00370677
170 1 -3.12269 11.6018 19.9999 0 0 0
179 1 -2.25393 7.77596 20.0043 -0.00553147 0.00116666 -0.0110141
180 1 -2.34103 10.4689 19.9999 0 0 0
196 1 -0.17762 6.44487 19.6045 -0.0218976 -0.026623 0.00447388
197 1 -0.743314 7.70321 19.8715 0.0249926 0.0233243 4.68801e-05
198 1 -0.218983 9.00317 19.9856 0.0128736 0.000296736 -0.00838646
199 1 -0.876963 10.4688 19.9999 0 0 0
200 1 -0.0953724 11.6018 19.9999 0 0 0
208 1 1.30073 6.71906 19.6758 0.0265217 -0.0310445 -0.00927759
209 1 1.1742 9.03259 19.998 0.0232243 0.0060855 0.000964165
210 1 1.14924 11.6018 19.9999 0 0 0
219 1 2.12866 7.78308 19.8559 -0.0203421 -0.0210791 0.000689667
220 1 1.93091 10.4688 19.9999 0 0 0
236 1 4.53954 7.1328 19.3238 0.0139343 -0.0104614 -0.0202285
237 1 3.5257 7.88779 19.8732 0.0121692 -0.0254532 -0.0117178
238 1 4.23057 9.25857 20.1499 -0.00823955 0.00541329 0.00388488
239 1 3.39506 10.4687 19.9999 0 0 0
240 1 4.17656 11.6018 19.9999 0 0 0
248 1 5.87639 7.05762 19.7301 0.0080675 -0.0188169 -0.0264824
249 1 5.60079 9.09344 20.0819 -0.012612 0.014393 0.0100849
250 1 5.4212 11.6017 19.9999 0 0 0
259 1 6.59791 8.10526 20.1228 0.00171364 0.00240922 0.00408396
260 1 6.20335 10.4685 19.9999 0 0 0
277 1 7.90585 8.15351 20.0698 -0.0084257 -0.0247452 0.00566011
276 1 8.61925 6.98603 20.0977 -0.00939222 -0.0273488 3.16703e-05
278 1 8.47775 9.27168 19.9994 -0.0104282 -0.0146824 0.000489093
279 1 7.66711 10.4687 19.9999 0 0 0
280 1 8.44529 11.6024 19.9999 0 0 0
288 1 9.90075 6.93024 20.0587 0.0156834 -0.0484227 0.00306772
289 1 9.85906 9.29927 20.0007 -0.00117317 -0.0282794 -0.000418921
290 1 9.6873 11.6101 19.9999 0 0 0
299 1 10.5235 8.09875 20.0029 -0.00788599 -0.0253504 0.000705359
300 1 10.4752 10.4755 19.9999 0 0 0
316 1 12.6473 6.74288 19.9999 0 0 0
317 1 11.9051 7.97805 19.9999 0 0 0
318 1 12.6583 9.19198 19.9999 0 0 0
319 1 11.9246 10.4937 19.9999 0 0 0
320 1 12.7709 11.5297 19.9999 0 0 0
328 1 14.0456 6.75188 19.9999 0 0 0
329 1 14.0237 9.17042 19.9999 0 0 0
330 1 13.9415 11.792 19.9999 0 0 0
175 1 -5.24524 -3.0969 22.568 0.00327075 0.0404721 0.0262884
189 1 -0.729739 -0.842045 22.3932 0.0152009 0.00387311 0.0117669
214 1 4.0571 -6.40166 22.2334 0.0257806 -0.040766 0.0386816
228 1 3.22954 -6.23141 23.3948 -0.0568839 -0.0283989 -0.0168735
191 1 -3.03091 5.53999 22.2584 0.0294351 0.0473925 0.0797587
192 1 -5.79626 3.99692 23.957 -0.059075 0.058599 0.0622624
232 1 7.62481 3.15147 22.0899 0.0321365 0.01394 0.0361022
206 1 2.55978 1.56967 23.5778 0.0804134 0.0835367 0.0735303
215 1 4.01244 0.889696 24.3283 -0.0028473 -0.0439538 0.0425166
233 1 6.06391 5.34186 23.9793 0.0810965 0.0651782 0.0413333
193 1 -0.503108 6.83958 23.8328 0.00747261 0.0556922 0.0740268
177 1 -1.13882 7.25374 24.9077 0.0500391 0.0475526 0.0676572
231 1 5.81523 6.88722 24.2494 -0.00929141 0.0537772 0.0590108
216 1 3.29566 -4.40809 31.9109 0.0449149 -0.0625209 0.193083
7 1 -0.460746 -7.67909 46.101 0.0192186 -0.125021 0.452901
8 1 -1.61256 -7.31205 45.8066 -0.0483144 -0.0783288 0.428294
25 1 2.71766 1.73656 46.6989 -0.00102586 0.0190316 0.482404
27 1 -6.58382 -0.0896885 48.5838 -0.0551933 0.0437057 0.531132
28 1 -2.26197 -3.34822 49.043 0.0161316 -0.0443548 0.495368
44 1 -3.08862 -2.34406 49.24 -0.0313561 -0.0419553 0.474744
52 1 -1.57183 -3.99433 50.0461 -0.0021583 -0.0234068 0.47655
20 1 -1.98723 -1.85891 51.3665 0.0255637 -0.016065 0.51187
36 1 -0.346451 -2.78253 50.3413 -0.0111881 0.022501 0.413128
50 1 -0.827914 -1.58283 50.6614 -0.0118967 -0.00797788 0.478315
4 1 -3.46386 -1.04616 51.6388 0.00302636 -0.00499596 0.524108
60 1 -2.37649 -3.11714 52.0813 -0.0345493 -0.0596319 0.468452
12 1 -1.09876 -3.83051 52.0554 -0.0273062 0.0196039 0.478911
3 1 -4.45776 -0.0998523 50.6877 -0.0576481 -0.0124755 0.467619
26 1 1.6442 -1.97474 48.782 0.0110981 0.0273018 0.491678
40 1 3.10843 -1.73925 49.2361 -0.0300033 -0.0029661 0.485149
35 1 0.390366 -2.24433 49.5095 -0.0114923 0.00583215 0.462502
16 1 3.10516 -1.22246 50.8846 0.0237263 -0.0148011 0.424681
59 1 3.02243 -2.43112 51.5375 0.0326051 0.0265459 0.492085
15 1 2.37288 -0.486791 52.7122 0.022673 0.0272134 0.503129
32 1 -1.85839 1.29934 48.6152 0.0210617 0.00590271 0.501425
10 1 -1.34671 1.93813 47.7738 -0.0395445 -0.0234854 0.422068
42 1 -5.2915 0.0364833 48.9147 -0.0569356 -0.0296126 0.490199
18 1 -4.87924 1.15996 50.4437 -0.0118463 -0.0260382 0.506984
56 1 -1.75694 1.61698 50.2584 0.013979 0.00327893 0.486894
9 1 -0.0759468 3.9142 51.5759 -0.0333357 0.0226629 0.50405
54 1 -1.5671 0.6795 51.4156 -0.00407049 -0.00209412 0.509049
17 1 -2.90524 1.71192 51.7779 0.0305347 -0.00321584 0.524454
30 1 -1.17156 3.79009 52.1979 0.00605326 0.0156082 0.480553
49 1 2.06767 3.28238 46.7662 0.0249611 0.0416137 0.466609
51 1 0.91892 2.63039 47.0297 0.015409 0.0287422 0.450144
38 1 3.19873 1.38879 48.1114 0.0345378 -0.0142549 0.49742
31 1 2.44937 3.97336 48.1394 -0.001635 0.0430538 0.461946
55 1 1.97511 2.90303 49.0617 0.00843749 0.045698 0.446271
14 1 2.65505 1.64437 49.4623 0.0396897 0.0451131 0.488874
1 1 3.26159 1.40648 50.9441 -0.0109859 0.00814274 0.487944
2 1 2.71127 0.0388474 51.2039 -0.00603878 -0.00907286 0.462148
29 1 1.39614 3.18258 52.0567 0.0281518 -0.0370478 0.51525
13 1 3.22447 1.88733 52.4771 -0.0108335 -0.00311816 0.462106
58 1 -2.10993 -2.55164 53.2842 -0.0122849 0.0157082 0.47956
19 1 -2.8856 -1.08856 52.9839 0.0193627 0.00615842 0.458036
11 1 -1.08553 -3.65092 53.6604 -0.0411259 -0.0285429 0.514173
34 1 -1.91036 -2.8936 54.5862 -0.013379 -0.00922631 0.491656
43 1 -2.48743 -0.15361 54.1005 0.00687542 -0.0235115 0.446715
48 1 -1.29198 -2.03995 55.5188 -0.0296287 0.0361111 0.479175
24 1 -1.76845 -0.824219 55.8432 -0.00691281 0.00458255 0.461063
57 1 2.45264 -1.55506 52.8085 0.00264138 -0.00139767 0.502074
33 1 0.411548 -1.68086 55.034 -0.018748 0.00343975 0.526064
46 1 0.309728 -0.353815 55.282 -0.0146874 0.0450692 0.520644
41 1 -2.49626 1.2891 53.3015 -0.0151107 0.0307185 0.472072
47 1 -1.44641 3.7566 53.9195 -0.000545625 0.00986278 0.487377
45 1 -1.32111 6.1531 54.2191 -0.0241853 0.0226662 0.521322
23 1 -2.21159 2.31687 54.2246 -0.0051437 -0.0244764 0.480605
21 1 -0.715017 4.7295 54.5672 -0.0350056 0.0536477 0.494781
5 1 -0.544093 2.01681 56.0848 0.0420238 0.0416884 0.525497
53 1 1.99465 2.93162 53.1256 -0.00383343 0.0210237 0.514999
37 1 3.45 1.49605 54.1873 -0.0286673 0.0261402 0.499038
39 1 2.46249 0.644803 53.9763 0.00329424 -0.0214848 0.453446
6 1 0.787327 1.82721 55.5333 -0.0255971 -0.0206013 0.52708
22 1 1.25637 0.686238 55.1498 0.01307 -0.0328632 0.441787
