ITEM: TIMESTEP
43200
ITEM: NUMBER OF ATOMS
330
ITEM: BOX BOUNDS pp pp pp
-1.4715758017245314e+01 1.5057610017245315e+01
-1.2710055654020760e+01 1.2664508654020761e+01
-5.0001035148846022e+01 1.0000103514884636e+02
ITEM: ATOMS id type x y z vx vy vz
61 1 -13.6674 -11.9461 19.9999 0 0 0
62 1 -13.1228 -10.6724 19.9999 0 0 0
63 1 -13.7825 -9.34696 19.9999 0 0 0
64 1 -13.0772 -8.00396 19.9999 0 0 0
65 1 -13.7542 -6.79742 19.9999 0 0 0
81 1 -11.507 -10.5408 19.9999 0 0 0
82 1 -11.5331 -8.01671 19.9999 0 0 0
91 1 -10.7591 -11.6424 19.9999 0 0 0
92 1 -10.941 -9.27057 19.9965 0.0150915 0.00197374 -0.000530804
93 1 -10.8716 -6.77402 19.9822 0.0235926 0.00192498 -0.000428372
101 1 -9.52473 -11.6468 19.9999 0 0 0
102 1 -8.74136 -10.5124 19.9999 0 0 0
103 1 -9.53516 -9.30045 19.9821 0.0167424 0.0037258 -0.00147775
104 1 -8.98086 -8.08951 20.0263 0.0261304 0.0266501 0.00402769
105 1 -9.47323 -6.82361 20.058 0.000582188 0.0118671 0.00345722
121 1 -7.27873 -10.5146 19.9999 0 0 0
122 1 -7.55074 -7.98352 20.1488 0.0142443 0.0089013 0.00656777
131 1 -6.50232 -11.6488 19.9999 0 0 0
132 1 -6.73903 -9.14622 19.9848 0.0165741 0.0100026 0.00223534
133 1 -6.70928 -6.77782 20.2652 -0.00271966 0.0373646 -0.00249253
141 1 -5.25854 -11.6473 19.9999 0 0 0
142 1 -4.47674 -10.5145 19.9999 0 0 0
143 1 -5.25918 -9.15527 20.1504 0.0243932 0.0167563 0.00564877
144 1 -4.5312 -7.86344 20.1696 0.0327471 0.0528396 -0.0135061
145 1 -5.40754 -6.77906 19.7642 -0.00780297 0.00869579 -0.0126765
161 1 -3.01281 -10.5144 19.9999 0 0 0
162 1 -3.01618 -7.97049 19.8546 0.035363 0.0089933 -0.0141528
171 1 -2.23133 -11.6474 19.9999 0 0 0
172 1 -2.32425 -9.09837 20.2015 0.0205543 0.00331072 0.000993905
173 1 -2.17991 -6.84037 19.3174 0.00217327 0.0376133 0.0107648
181 1 -0.986751 -11.6474 19.9999 0 0 0
182 1 -0.205108 -10.5143 19.9999 0 0 0
183 1 -0.895175 -9.20447 20.1801 0.00318013 0.013418 -0.00999426
184 1 0.0528205 -8.12299 19.4209 0.00845434 0.0149975 -0.0293842
185 1 -0.597334 -6.63224 19.2079 0.019668 0.0188251 0.00561243
201 1 1.25901 -10.5143 19.9999 0 0 0
202 1 1.647 -8.04627 19.3957 0.0236266 0.0268349 -0.028591
211 1 2.0406 -11.6474 19.9999 0 0 0
212 1 2.17166 -9.17993 20.075 -0.0196375 -0.00226748 -0.0148702
213 1 2.37539 -6.68841 19.5208 0.0252325 0.0106465 0.0117414
221 1 3.28523 -11.6473 19.9999 0 0 0
222 1 4.06705 -10.5143 19.9999 0 0 0
223 1 3.6018 -9.09835 20.2116 -0.0119402 0.023956 -0.000661447
224 1 4.41002 -7.94011 19.6958 -0.0207178 0.00965261 -0.00897641
225 1 3.65004 -6.71496 19.223 -0.0128287 0.0402133 0.00789055
241 1 5.53108 -10.5143 19.9999 0 0 0
242 1 5.83702 -7.89142 20.0993 -0.0277309 0.0271903 -0.00817317
251 1 6.31174 -11.6474 19.9999 0 0 0
252 1 6.3375 -9.24609 20.1736 -0.00112881 0.00872343 0.00549433
253 1 6.72466 -6.90388 19.582 -0.00295739 0.0391057 -0.0264092
261 1 7.55524 -11.6498 19.9999 0 0 0
203 1 1.74804 -6.37448 20.8448 0.0178205 0.000325464 0.0259245
265 1 8.0482 -6.99354 20.0513 0.000734609 0.0193188 -0.00226638
263 1 7.81084 -9.27428 20.006 -0.016184 0.00548317 0.00473788
262 1 8.33779 -10.5154 19.9999 0 0 0
264 1 8.60971 -8.18247 20.1352 -0.00695765 0.0070056 0.0069868
281 1 9.79556 -10.5245 19.9999 0 0 0
282 1 9.91437 -8.28379 20.0385 -0.00314944 0.0180725 0.00350565
291 1 10.5816 -11.6418 19.9999 0 0 0
292 1 10.534 -9.41284 19.9839 -0.0121418 0.0110095 -0.00156607
293 1 10.5759 -7.14466 20.0571 0.00929433 0.014286 0.00370263
301 1 11.8019 -11.7522 19.9999 0 0 0
302 1 12.7161 -10.5156 19.9999 0 0 0
303 1 11.8934 -9.22642 19.9999 0 0 0
304 1 12.655 -8.00627 19.9999 0 0 0
305 1 11.8992 -6.77596 19.9999 0 0 0
321 1 14.087 -10.4984 19.9999 0 0 0
322 1 14.0714 -8.01298 19.9999 0 0 0
66 1 -13.0658 -5.54976 19.9999 0 0 0
67 1 -13.7179 -4.30197 19.9999 0 0 0
68 1 -13.0406 -3.0891 19.9999 0 0 0
69 1 -13.6883 -1.86008 19.9999 0 0 0
70 1 -13.0424 -0.636745 19.9999 0 0 0
83 1 -11.5387 -5.54743 19.9999 0 0 0
84 1 -11.5566 -3.09089 19.9999 0 0 0
85 1 -11.5625 -0.637245 19.9999 0 0 0
94 1 -10.7666 -4.35537 20.0136 0.00511585 0.00213439 0.00171733
95 1 -10.693 -1.90623 20.0591 0.00994366 -0.00480251 0.00265374
106 1 -8.7383 -5.71548 20.227 0.0165351 0.002148 0.00889223
107 1 -9.33624 -4.52256 20.1801 0.0112143 0.00568525 0.00843597
108 1 -8.69816 -3.37754 20.1715 0.0355811 0.00198687 0.00254305
109 1 -9.33652 -2.04427 20.1414 0.0246825 0.00567927 0.00445418
110 1 -8.78266 -0.739167 19.9894 0.0352631 -0.00916876 -0.00694021
123 1 -7.38615 -5.65734 20.2765 0.000332709 0.0239461 -0.00221571
124 1 -7.44776 -3.27845 19.7581 0.0124885 0.00332322 -0.0246667
125 1 -7.49228 -0.684859 19.5414 0.0295199 0.00912789 -0.0171112
134 1 -6.59074 -4.52681 19.7302 0.00557189 0.00345273 -0.0193291
135 1 -7.01231 -2.10096 19.1992 -0.00385177 -0.00152817 -0.0130701
146 1 -4.56818 -5.72738 18.8968 0.0237038 0.018411 -0.018055
147 1 -5.49982 -4.69606 18.8453 0.00764554 0.0178581 -0.00747734
148 1 -4.90391 -3.15677 18.5068 0.0263157 0.0206415 0.00560331
149 1 -5.61327 -2.06806 19.3751 0.000532766 -0.00937793 -0.00439743
150 1 -5.73149 -1.17712 20.4935 0.0111622 -0.0101732 0.0381075
163 1 -3.24373 -5.87176 19.7169 0.0128213 -0.0274585 -0.00447251
164 1 -4.45285 -4.53482 21.7454 0.0126216 -0.00802699 0.00238149
165 1 -5.55585 -1.95176 21.9121 0.0157417 -0.0200425 0.00968983
174 1 -3.23357 -4.71543 21.5374 -0.0206225 0.0060933 0.057396
187 1 -1.96678 -4.57835 20.5384 -0.0262536 0.0327841 -0.012368
188 1 -0.680519 -5.1832 20.9098 0.0158248 0.0305848 0.0174541
190 1 -2.35971 -3.01189 21.577 -0.0198424 -0.0186948 0.0352364
205 1 -2.12212 -4.49029 19.0724 -0.0612915 -0.0842705 0.00583004
186 1 0.3442 -6.23323 20.6517 0.0235247 -0.00754037 0.0391402
226 1 4.80522 -5.74077 19.6931 0.016251 0.0119502 0.00547204
227 1 4.76595 -5.49915 21.0896 0.0096542 -0.0619806 0.0310411
229 1 5.25341 -4.2619 20.9089 -0.00957493 0.0025886 0.0254121
230 1 6.65636 -0.6267 21.7392 0.0272276 0.0156894 0.00527617
243 1 6.04445 -5.84487 19.1407 0.0160819 0.0257616 -0.0108457
244 1 6.32503 -3.77882 20.1891 0.00191484 -0.00201709 0.0146636
245 1 5.88136 -1.02903 20.6898 -0.00686569 -0.012012 0.023194
254 1 6.6177 -4.67857 19.2021 -0.00923867 -0.0137454 -0.00133185
255 1 6.28106 -2.39621 20.1492 -0.0360008 0.0275815 -0.00130602
267 1 8.00134 -4.83091 19.4084 -0.0622295 0.0266003 -0.0413545
269 1 7.60534 -2.06637 19.7553 -0.0286479 -0.00260091 -0.000562491
266 1 8.67664 -5.90155 20.0502 -0.0145982 0.0108689 0.00180034
268 1 8.29866 -3.47163 19.5752 0.00101525 0.00137024 -0.0144288
270 1 8.2279 -0.779995 19.6542 -0.0134149 0.0143786 -0.00612623
283 1 9.9871 -5.92982 20.179 0.00444035 0.0113088 0.00947606
284 1 9.70465 -3.325 20.0707 0.00741861 -0.00313807 -0.0034799
285 1 9.69319 -0.624437 19.9901 -0.00239751 0.0139979 -0.014148
294 1 10.5688 -4.67352 20.1191 0.00247536 0.00790507 0.00414755
295 1 10.329 -2.06436 20.1352 0.0194931 0.0250748 0.00457212
306 1 12.6496 -5.55341 19.9999 0 0 0
307 1 11.9041 -4.32686 19.9999 0 0 0
308 1 12.647 -3.09734 19.9999 0 0 0
309 1 11.9037 -1.86828 19.9999 0 0 0
310 1 12.6457 -0.637745 19.9999 0 0 0
323 1 14.0539 -5.56516 19.9999 0 0 0
324 1 14.0472 -3.10129 19.9999 0 0 0
325 1 14.0438 -0.638188 19.9999 0 0 0
71 1 -13.6826 0.591886 19.9999 0 0 0
72 1 -13.0424 1.82079 19.9999 0 0 0
73 1 -13.6895 3.04359 19.9999 0 0 0
74 1 -13.0413 4.27397 19.9999 0 0 0
75 1 -13.7195 5.48914 19.9999 0 0 0
86 1 -11.5623 1.82169 19.9999 0 0 0
87 1 -11.5564 4.27485 19.9999 0 0 0
96 1 -10.717 0.597855 20.0547 0.0148809 -0.00302071 0.00297054
97 1 -10.7772 3.11046 20.0449 0.0112903 0.00132828 0.00168665
98 1 -10.7707 5.48338 20.0269 0.0111801 0.00180179 0.000814819
111 1 -9.3117 0.57919 20.1171 0.0142024 0.00716577 0.00467369
112 1 -8.69043 1.91933 19.965 0.0344512 0.000127831 -0.0063125
113 1 -9.30724 3.16608 20.0661 0.0277675 -0.017581 -0.000510205
114 1 -8.5672 4.4933 20.051 0.0114147 -0.00777601 0.000245814
115 1 -9.33258 5.63255 20.0724 0.0235994 -0.0207726 0.00105463
127 1 -7.32191 4.24462 19.8968 4.47166e-05 -0.0225297 -0.00758423
126 1 -7.25149 1.88156 19.7009 0.0288351 -0.0114491 -0.00523745
136 1 -6.7535 0.541317 19.8545 -0.00409253 0.0209178 -0.00476627
137 1 -6.58736 3.07748 19.6532 0.0496887 -0.0104912 -0.00278168
138 1 -6.61353 5.55273 20.0333 0.020165 -0.0377475 -0.0132802
151 1 -5.54948 0.0710636 20.5251 -0.0204526 -0.0150425 0.0288595
152 1 -4.34542 1.76001 19.9674 0.0122725 0.0250347 -0.00686802
153 1 -5.01728 3.03888 19.4461 -0.00350469 -0.0127876 0.0187666
154 1 -4.48516 4.27563 19.0574 0.00549807 -0.0280284 -0.0122667
155 1 -5.22285 5.41533 19.731 0.0177637 -0.0101534 -0.0140696
166 1 -5.19947 1.16859 21.332 -0.0165563 -0.0201001 -0.0198456
167 1 -3.27235 4.59894 18.352 0.0313622 -0.0375078 -0.00534245
176 1 -1.48501 4.89981 21.7332 -0.00544583 0.0302039 0.0577914
178 1 -2.56824 5.7371 18.5918 0.00304486 -0.0307371 -0.0649036
194 1 -2.26758 5.17467 20.7975 -0.0496377 0.0295308 -0.00995001
195 1 -1.34035 5.56273 19.3729 -0.0264281 0.00620204 -0.00393262
207 1 3.10297 5.82061 21.6961 0.0177752 0.0487327 0.0423712
217 1 4.16336 5.06653 21.3779 -0.00142251 -0.000566017 0.00412445
218 1 2.54884 5.5957 19.5187 0.0227152 -0.0267629 0.00707688
234 1 4.64982 4.71734 19.7908 0.0135153 -0.027273 -0.0100775
235 1 3.98688 5.70431 19.0243 0.00658113 -0.0303822 0.00132872
246 1 5.76788 1.88679 20.2271 -0.0524453 0.0170293 0.0219011
247 1 6.133 4.6332 19.7342 0.0254356 -0.0314681 0.00769056
256 1 6.16967 0.651506 20.2464 -0.0416285 -0.0170231 -0.00036027
257 1 6.39 3.24066 19.8288 -0.0130284 -0.00132434 0.00835385
258 1 6.65748 5.8264 19.4785 -0.00229969 -0.0114085 -0.00548085
271 1 7.58713 0.625933 19.6756 -0.0444393 -0.0381688 -0.00304046
275 1 7.97339 5.83135 19.8076 -0.00906638 -0.00621655 -0.0159997
273 1 7.75184 3.23765 19.4526 -0.0323776 -0.02129 -0.00663494
272 1 8.37995 1.86506 19.5525 -0.018178 0.00296239 -0.0203259
274 1 8.32053 4.42074 19.9146 0.0181837 -0.0149547 -0.0114063
286 1 9.81246 1.89333 20.0047 0.0303959 0.000365492 -0.0018832
287 1 9.724 4.34464 20.1218 0.0182374 0.00272796 0.00463461
296 1 10.1887 0.653384 20.1144 0.00623186 0.0226206 0.00519118
297 1 10.4978 3.24309 20.0624 0.00213761 -0.0062331 0.000278232
298 1 10.5878 5.63275 20.0476 0.020153 -0.00481956 0.00543028
311 1 11.9034 0.592385 19.9999 0 0 0
312 1 12.6457 1.82255 19.9999 0 0 0
313 1 11.9038 3.05326 19.9999 0 0 0
314 1 12.6466 4.28301 19.9999 0 0 0
315 1 11.9041 5.51379 19.9999 0 0 0
326 1 14.0439 1.82305 19.9999 0 0 0
327 1 14.0468 4.28589 19.9999 0 0 0
76 1 -13.0678 6.73987 19.9999 0 0 0
77 1 -13.743 7.99662 19.9999 0 0 0
78 1 -13.076 9.22053 19.9999 0 0 0
79 1 -13.6781 10.6114 19.9999 0 0 0
80 1 -13.0646 11.9529 19.9999 0 0 0
88 1 -11.5395 6.7281 19.9999 0 0 0
89 1 -11.5535 9.18478 19.9999 0 0 0
90 1 -11.7099 11.6077 19.9999 0 0 0
99 1 -10.8256 7.96919 20.0022 0.0270385 -0.0166059 -0.000140322
100 1 -10.9027 10.4758 19.9999 0 0 0
116 1 -8.62191 6.87086 20.0628 0.00752013 -0.0151994 0.00276924
117 1 -9.4146 7.92857 20.0036 0.0194687 -0.000804056 0.000143177
118 1 -8.56598 9.01486 19.9927 0.0175337 -0.0156406 -0.00146019
119 1 -9.37207 10.4804 19.9999 0 0 0
120 1 -8.62688 11.6228 19.9999 0 0 0
130 1 -7.38724 11.6024 19.9999 0 0 0
128 1 -7.42114 6.63029 20.1812 0.00258522 -0.0252338 0.00952856
129 1 -7.25174 8.98042 20.0034 0.0321144 -0.0204452 0.00357288
139 1 -6.58726 7.69065 20.1384 0.0190198 -0.0118953 0.00649399
140 1 -6.60892 10.469 19.9999 0 0 0
156 1 -4.50565 6.69106 19.8774 -0.02305 -0.00542902 -0.0151693
157 1 -5.16739 7.86555 20.1969 0.0303254 -0.00246499 -6.54691e-05
158 1 -4.31788 9.11593 20.1657 -0.00271294 0.015122 0.0153823
159 1 -5.14663 10.4689 19.9999 0 0 0
160 1 -4.36691 11.6023 19.9999 0 0 0
168 1 -3.20393 6.94343 19.4403 0.00595782 -0.00872947 0.00141411
169 1 -3.06376 9.00283 20.1518 0.0309875 0.018261 -0.00646492
170 1 -3.12269 11.6018 19.9999 0 0 0
179 1 -2.26722 7.79451 19.9764 -0.00334874 0.0103795 -0.00927156
180 1 -2.34103 10.4689 19.9999 0 0 0
196 1 -0.232495 6.37396 19.6164 -0.016169 -0.0213713 0.00450965
197 1 -0.700391 7.7674 19.8727 0.00724567 0.0196436 0.000182457
198 1 -0.167239 9.01676 19.9633 0.0239787 0.00963558 -0.00750926
199 1 -0.876963 10.4688 19.9999 0 0 0
200 1 -0.0953724 11.6018 19.9999 0 0 0
208 1 1.39533 6.59957 19.6428 0.039573 -0.0545778 -0.0140926
209 1 1.25092 9.06223 19.9995 0.0306292 0.014001 5.4695e-06
210 1 1.14924 11.6018 19.9999 0 0 0
219 1 2.06 7.74321 19.8601 -0.0257013 -0.00725057 0.00218985
220 1 1.93091 10.4688 19.9999 0 0 0
236 1 4.57376 7.09138 19.2625 0.00956663 -0.0179081 -0.0231203
237 1 3.57061 7.84611 19.8471 0.0183859 -0.00436928 -0.00712696
238 1 4.19405 9.25258 20.1555 -0.0177835 -0.0107042 -5.77743e-05
239 1 3.39506 10.4687 19.9999 0 0 0
240 1 4.17656 11.6018 19.9999 0 0 0
248 1 5.90977 6.99806 19.6536 0.0158147 -0.022565 -0.0275431
249 1 5.56926 9.15051 20.112 -0.00891647 0.0251881 0.0113091
250 1 5.4212 11.6017 19.9999 0 0 0
259 1 6.58591 8.11069 20.1336 -0.0111605 0.00121807 0.00336978
260 1 6.20335 10.4685 19.9999 0 0 0
277 1 7.8852 8.07858 20.0866 -0.00625119 -0.0280305 0.00637823
276 1 8.59 6.90934 20.0976 -0.0103127 -0.0273672 -2.93931e-05
278 1 8.453 9.24063 20.001 -0.00709901 -0.00736088 0.000688823
279 1 7.66711 10.4687 19.9999 0 0 0
280 1 8.44529 11.6024 19.9999 0 0 0
288 1 9.94731 6.79041 20.0683 0.0162346 -0.0495282 0.00386091
289 1 9.84868 9.21549 19.9994 -0.00645534 -0.0302549 -0.000522322
290 1 9.6873 11.6101 19.9999 0 0 0
299 1 10.5121 8.02984 20.0049 1.4722e-05 -0.0242339 0.000765715
300 1 10.4752 10.4755 19.9999 0 0 0
316 1 12.6473 6.74288 19.9999 0 0 0
317 1 11.9051 7.97805 19.9999 0 0 0
318 1 12.6583 9.19198 19.9999 0 0 0
319 1 11.9246 10.4937 19.9999 0 0 0
320 1 12.7709 11.5297 19.9999 0 0 0
328 1 14.0456 6.75188 19.9999 0 0 0
329 1 14.0237 9.17042 19.9999 0 0 0
330 1 13.9415 11.792 19.9999 0 0 0
204 1 2.79964 -7.01718 22.068 0.0533119 -0.00658622 0.0507916
214 1 4.12091 -6.50279 22.3314 0.0201645 -0.0327321 0.0298953
175 1 -5.23522 -2.97299 22.6163 0.005336 0.042618 0.0118005
189 1 -0.687048 -0.831005 22.4262 0.0152897 0.00400678 0.0118115
228 1 3.07277 -6.31777 23.3326 -0.0556446 -0.0324231 -0.0243256
191 1 -2.92816 5.66002 22.4626 0.0418172 0.0389329 0.0654121
192 1 -5.96168 4.161 24.1312 -0.0590826 0.0586004 0.0621768
206 1 2.80504 1.79174 23.7942 0.095599 0.0735299 0.0815436
215 1 3.98442 0.778488 24.4368 -0.0179938 -0.0339226 0.0344344
233 1 6.28038 5.57468 24.1043 0.0738486 0.0962477 0.047208
232 1 7.71488 3.19037 22.1928 0.0321927 0.0138405 0.0373245
193 1 -0.486028 6.9983 24.0471 0.0051682 0.0574095 0.0783561
177 1 -0.994763 7.38421 25.09 0.0524178 0.0459097 0.0632842
231 1 5.79983 6.98753 24.4052 -0.00203397 0.0227392 0.0530217
216 1 3.42143 -4.58315 32.4515 0.0449149 -0.0625209 0.193083
8 1 -1.73819 -7.53466 47.0083 -0.0400981 -0.0812035 0.430477
7 1 -0.416587 -8.02584 47.3666 0.011001 -0.122135 0.450728
28 1 -2.23776 -3.45668 50.4208 -0.000381643 -0.0320078 0.487385
44 1 -3.17108 -2.46879 50.5634 -0.0271802 -0.0473473 0.470463
52 1 -1.56849 -4.07593 51.3767 0.0055211 -0.0360845 0.47457
36 1 -0.388894 -2.74446 51.5054 -0.0214255 0.00586137 0.420207
50 1 -0.869797 -1.58782 52.0098 -0.0191009 0.00241112 0.485317
3 1 -4.60446 -0.153862 52.0102 -0.0464837 -0.0273743 0.477688
42 1 -5.45986 -0.0381922 50.2942 -0.0626274 -0.0242706 0.493729
26 1 1.69037 -1.89644 50.1707 0.0138662 0.0273825 0.494476
40 1 3.00028 -1.74912 50.5889 -0.0353396 -0.00392041 0.478697
35 1 0.394704 -2.21475 50.78 0.011103 0.0151841 0.446283
16 1 3.18164 -1.26162 52.0339 0.0297946 -0.0128171 0.408714
27 1 -6.72761 0.0330425 50.0736 -0.0490927 0.0437205 0.532374
32 1 -1.79888 1.31978 50.0495 0.0224379 0.00995767 0.519574
10 1 -1.45657 1.87338 48.949 -0.0399475 -0.0241267 0.4191
18 1 -4.92156 1.09085 51.8485 -0.0184197 -0.0208604 0.497423
56 1 -1.71695 1.5962 51.6373 0.0158941 -0.0162385 0.494312
25 1 2.72019 1.80129 48.0916 0.00309925 0.0266312 0.512274
49 1 2.14466 3.37671 48.0892 0.0290123 0.0247995 0.47592
51 1 0.965959 2.71333 48.284 0.0185711 0.0302551 0.446151
38 1 3.27216 1.36283 49.4896 0.0170134 -0.00264419 0.487753
31 1 2.44221 4.09475 49.4178 -0.00298734 0.0432163 0.4553
55 1 2.00017 3.02895 50.3183 0.0125305 0.0408457 0.450939
14 1 2.78019 1.76785 50.8156 0.0469265 0.0471073 0.474894
20 1 -1.92088 -1.90111 52.755 0.021185 -0.00831373 0.466404
4 1 -3.45798 -1.05293 53.0835 0.000599307 -0.000718009 0.504076
60 1 -2.47987 -3.28011 53.3839 -0.0396968 -0.0502865 0.463183
12 1 -1.1576 -3.7871 53.4299 -0.0133248 0.00984156 0.504758
58 1 -2.14282 -2.5257 54.6596 -0.0111365 -0.00738913 0.516567
19 1 -2.84304 -1.05498 54.3035 0.0142443 0.0113368 0.483699
11 1 -1.20707 -3.72492 55.0846 -0.0459786 -0.0223655 0.503528
34 1 -1.95008 -2.93537 55.9562 -0.0160853 -0.0180433 0.484387
43 1 -2.46671 -0.206647 55.3521 0.00873507 -0.0140452 0.451669
48 1 -1.34372 -1.937 56.8611 -0.00776942 0.0346518 0.479361
24 1 -1.79822 -0.793286 57.1253 -0.0141856 0.019244 0.455476
59 1 3.1067 -2.36487 52.9331 0.0260535 0.0243501 0.506957
15 1 2.43894 -0.38458 54.1136 0.0236183 0.0481328 0.493374
57 1 2.46006 -1.58902 54.2284 0.00646504 -0.0302665 0.504315
33 1 0.336253 -1.66149 56.5166 -0.0342318 0.0122254 0.532753
46 1 0.279594 -0.239988 56.735 -0.00707757 0.0353764 0.516954
9 1 -0.137013 3.97668 52.9672 -0.00470065 0.0194897 0.490741
54 1 -1.5956 0.710528 52.8084 -0.0131581 0.0203531 0.486562
17 1 -2.80006 1.68745 53.249 0.0392059 -0.0104929 0.521669
30 1 -1.18497 3.83497 53.5682 -0.0146393 0.0163543 0.494434
41 1 -2.53871 1.37435 54.6307 -0.0152583 0.0284123 0.482818
47 1 -1.47568 3.73297 55.2628 -0.0193532 -0.0237262 0.477086
45 1 -1.38676 6.21828 55.6802 -0.0227606 0.0237792 0.52237
23 1 -2.21661 2.2645 55.5624 0.00156138 -0.0119825 0.47766
21 1 -0.799978 4.90607 55.9694 -0.0266753 0.0713839 0.506155
5 1 -0.412005 2.13442 57.5525 0.0513282 0.0424152 0.523129
1 1 3.21796 1.42284 52.33 -0.0196305 0.00271957 0.501869
2 1 2.69717 0.0313719 52.5105 -0.00330327 0.00367362 0.470899
29 1 1.45501 3.08864 53.4719 0.0112884 -0.028762 0.4973
13 1 3.20181 1.87688 53.7498 -0.00641752 -0.00288148 0.448084
53 1 1.99625 2.98885 54.5883 0.00340075 0.020253 0.52631
37 1 3.38231 1.57346 55.5723 -0.0213833 0.0280734 0.488599
39 1 2.45065 0.571487 55.2599 -0.00875502 -0.0262816 0.467094
6 1 0.699294 1.7656 57.0143 -0.0355312 -0.0266881 0.52907
22 1 1.29468 0.595028 56.3806 0.0115933 -0.0298217 0.440517
