ITEM: TIMESTEP
22100
ITEM: NUMBER OF ATOMS
330
ITEM: BOX BOUNDS pp pp pp
-1.4715758017245314e+01 1.5057610017245315e+01
-1.2710055654020760e+01 1.2664508654020761e+01
-5.0001035148846022e+01 1.0000103514884636e+02
ITEM: ATOMS id type x y z vx vy vz
61 1 -13.6674 -11.9461 19.9999 0 0 0
62 1 -13.1228 -10.6724 19.9999 0 0 0
63 1 -13.7825 -9.34696 19.9999 0 0 0
64 1 -13.0772 -8.00396 19.9999 0 0 0
65 1 -13.7542 -6.79742 19.9999 0 0 0
81 1 -11.507 -10.5408 19.9999 0 0 0
82 1 -11.5331 -8.01671 19.9999 0 0 0
91 1 -10.7591 -11.6424 19.9999 0 0 0
92 1 -10.8448 -9.2283 20.0004 0.00689002 0.00632603 1.0083e-05
93 1 -10.8849 -6.80703 20.0037 0.0102107 -0.00311553 0.00011543
101 1 -9.52473 -11.6468 19.9999 0 0 0
102 1 -8.74136 -10.5124 19.9999 0 0 0
103 1 -9.42482 -9.27827 20.0033 0.00113853 0.00572683 7.04968e-05
104 1 -8.7135 -8.07875 20.0122 0.0067391 -0.002664 0.000226918
105 1 -9.50976 -6.88466 20.0142 0.00737273 -0.00630807 0.000331647
121 1 -7.27873 -10.5146 19.9999 0 0 0
122 1 -7.27758 -8.15572 20.015 0.00940932 -0.00693412 0.00038361
131 1 -6.50232 -11.6488 19.9999 0 0 0
132 1 -6.51161 -9.33958 20.0087 0.00779 -0.00627436 0.000109697
133 1 -6.8208 -6.90191 20.0163 -0.00471979 -0.0110511 0.00137619
141 1 -5.25854 -11.6473 19.9999 0 0 0
142 1 -4.47674 -10.5145 19.9999 0 0 0
143 1 -5.10757 -9.22791 20.0068 0.00851088 -0.00115107 0.000147807
144 1 -4.53854 -8.06077 20.0047 -0.00215908 -0.0147896 0.00162059
145 1 -5.58342 -7.12873 20.0263 -0.0178975 -0.0360682 0.00525303
161 1 -3.01281 -10.5144 19.9999 0 0 0
162 1 -3.14473 -8.29026 20.0134 -0.0157038 -0.0421875 0.00409033
171 1 -2.23133 -11.6474 19.9999 0 0 0
172 1 -2.33622 -9.34436 20.0065 0.00436372 -0.0100526 0.00152455
173 1 -2.60626 -7.09628 19.8732 -0.0184063 0.0112983 -0.0131943
181 1 -0.986751 -11.6474 19.9999 0 0 0
182 1 -0.205108 -10.5143 19.9999 0 0 0
183 1 -1.00132 -9.3676 20.0014 -0.0109778 -0.021494 0.00117586
184 1 -0.478255 -8.28358 19.9752 -0.00179139 -0.0267863 0.000426887
185 1 -1.20962 -7.19146 19.9505 -0.00866316 -0.0176285 -0.00425108
201 1 1.25901 -10.5143 19.9999 0 0 0
202 1 0.898373 -8.36209 19.9731 0.00981049 -0.0185728 -0.00355796
211 1 2.0406 -11.6474 19.9999 0 0 0
212 1 1.81509 -9.3696 19.9998 0.000356189 -0.0130597 0.00146819
213 1 1.85395 -7.26149 19.7324 0.0181345 -0.0206425 -0.0126338
221 1 3.28523 -11.6473 19.9999 0 0 0
222 1 4.06705 -10.5143 19.9999 0 0 0
223 1 3.18901 -9.41902 19.997 -0.00247247 -0.0251459 0.000405585
224 1 3.92724 -8.46871 20.01 0.0151755 -0.0237597 0.00214053
225 1 3.23248 -7.28069 19.8816 0.0276417 -0.0269006 -0.0108891
241 1 5.53108 -10.5143 19.9999 0 0 0
242 1 5.34437 -8.22915 20.0019 0.0107251 -0.0199341 0.000581849
251 1 6.31174 -11.6474 19.9999 0 0 0
252 1 6.24467 -9.22189 20.0055 0.00452333 -0.00808925 -2.40307e-05
253 1 6.27881 -7.0829 20.0226 0.016704 -0.0239212 0.00237162
261 1 7.55524 -11.6498 19.9999 0 0 0
265 1 7.62455 -6.79038 20.0128 0.0291681 -0.023017 0.000940859
263 1 7.67292 -9.18055 20.0069 0.00363655 -0.00900406 -4.65979e-05
262 1 8.33779 -10.5154 19.9999 0 0 0
264 1 8.36889 -7.93482 20.0108 0.0147303 -0.0202797 4.0176e-05
281 1 9.79556 -10.5245 19.9999 0 0 0
282 1 9.7939 -7.96542 20.0079 0.00335298 -0.00657283 6.63984e-05
291 1 10.5816 -11.6418 19.9999 0 0 0
292 1 10.5005 -9.20497 20.003 -0.00599608 -0.00240133 8.41054e-05
293 1 10.4523 -6.72651 20.0072 0.00531647 -0.00707764 9.65557e-05
301 1 11.8019 -11.7522 19.9999 0 0 0
302 1 12.7161 -10.5156 19.9999 0 0 0
303 1 11.8934 -9.22642 19.9999 0 0 0
304 1 12.655 -8.00627 19.9999 0 0 0
305 1 11.8992 -6.77596 19.9999 0 0 0
321 1 14.087 -10.4984 19.9999 0 0 0
322 1 14.0714 -8.01298 19.9999 0 0 0
66 1 -13.0658 -5.54976 19.9999 0 0 0
67 1 -13.7179 -4.30197 19.9999 0 0 0
68 1 -13.0406 -3.0891 19.9999 0 0 0
69 1 -13.6883 -1.86008 19.9999 0 0 0
70 1 -13.0424 -0.636745 19.9999 0 0 0
83 1 -11.5387 -5.54743 19.9999 0 0 0
84 1 -11.5566 -3.09089 19.9999 0 0 0
85 1 -11.5625 -0.637245 19.9999 0 0 0
94 1 -10.9762 -4.29923 20.0071 0.0208504 -0.00144708 0.00037832
95 1 -10.8866 -1.87961 20.0086 0.0092659 0.00148684 0.000274898
106 1 -9.04209 -5.64116 20.0202 -0.00273724 -0.00473396 0.0011916
107 1 -9.54398 -4.35724 20.0143 0.00298138 -0.00257945 0.000542512
108 1 -8.97439 -3.13178 20.0133 -0.0140508 0.00128502 0.00154834
109 1 -9.53242 -1.88412 20.0085 -0.00924119 0.00631262 0.000904497
110 1 -8.93655 -0.670624 20.0004 -0.0180959 0.00112262 0.0015242
123 1 -7.67817 -5.7504 20.0216 -0.00109634 -0.00842236 0.00205456
124 1 -7.74015 -3.16362 19.9877 -0.0206692 -0.011897 0.00230795
125 1 -7.74384 -0.691195 19.9538 -0.026867 -0.00501444 0.00057033
134 1 -7.28665 -4.50435 19.9971 0.00869893 -0.00908138 0.00135269
135 1 -7.22581 -1.91744 19.9735 0.00785726 0.00126715 0.000172652
146 1 -5.05395 -5.92799 19.9535 0.0141078 -0.037247 -0.00177334
147 1 -5.89195 -4.83309 19.7981 -0.0388479 -0.00548002 -0.01292
148 1 -5.56403 -3.4996 19.431 -0.0105127 0.00538275 -0.0332903
149 1 -5.9347 -2.21065 19.5015 0.00291144 -0.0110234 -0.0332224
150 1 -5.18929 -0.92312 20.0062 0.0238647 0.00464378 0.00492769
163 1 -3.68033 -6.09064 19.6568 0.000425488 -0.0271963 -0.025683
164 1 -3.79654 -4.29391 20.9529 0.0120613 -0.0198524 0.0526585
165 1 -5.13218 -2.01901 20.7551 -0.0536867 0.00617592 0.0532675
174 1 -3.14463 -4.7095 19.7148 -0.00355656 0.0168529 -0.00754823
175 1 -5.10165 -3.37263 21.1845 -0.0633259 -0.0271101 0.0272629
186 1 -0.311805 -6.17146 19.6019 0.0175972 0.00542327 -0.00438159
187 1 -1.94536 -5.01325 20.4982 0.00235432 0.0297678 0.0260171
188 1 -0.760479 -4.99769 20.4796 0.00497461 -0.0537919 0.0132149
189 1 -1.32812 -0.982591 21.895 0.0182363 0.0114088 0.028413
190 1 -1.4487 -1.73192 19.9528 -0.044564 -0.0646238 0.0161423
203 1 0.972943 -6.30303 19.6406 -0.0149307 -0.0402269 -0.0313026
204 1 1.55487 -5.12522 20.538 0.041247 -0.0414484 0.0418035
205 1 0.298883 -1.43433 19.843 -0.0381007 -0.0646721 -0.0226664
214 1 2.74655 -5.26565 21.6731 0.0414973 -0.00462382 0.0579396
226 1 4.23246 -6.20809 19.6496 0.0231884 -0.0213337 -0.0292862
227 1 3.66891 -4.93111 20.1882 -0.00822289 0.00520189 0.028439
228 1 4.54286 -4.8576 21.3888 0.0203689 -0.055541 0.0900217
229 1 4.79594 -3.52388 20.4036 0.0456276 -0.0432397 0.00167518
230 1 5.16028 -1.11768 20.9891 0.0121371 -0.00861768 0.0451232
243 1 5.79989 -5.91502 19.9031 0.00913541 -0.024256 -0.0195247
244 1 5.86571 -3.27134 19.9398 -0.00395596 -0.0202963 -0.00114603
245 1 6.49335 -0.896224 20.5795 0.000812515 -0.00318424 0.0345417
254 1 6.56968 -4.67317 19.8287 0.0128581 -0.0158048 -0.00956325
255 1 6.86275 -2.00135 19.7036 0.0389908 0.00414464 -0.0177257
267 1 7.86103 -4.4106 19.9741 0.0100052 -0.0130835 -0.0021506
269 1 8.26991 -1.98476 19.9015 0.00458728 -0.0146143 -0.013308
266 1 8.41055 -5.73067 20.0143 0.0161453 -0.0279818 0.00105562
268 1 8.76139 -3.31048 20.0077 0.0247296 0.00518667 0.000839804
270 1 8.82505 -0.617856 19.9957 0.0236433 -0.0145979 0.00259204
283 1 9.74639 -5.49909 20.0113 0.0101655 -0.00665397 0.000370076
284 1 10.0033 -3.17553 20.0066 0.0513104 -0.00854633 0.00105691
285 1 10.0221 -0.576628 20.001 0.0671618 0.00632454 0.00102619
294 1 10.5135 -4.3279 20.0053 0.0102654 0.000984049 1.86421e-05
295 1 10.5508 -1.85434 20.0006 0.0145848 -0.000526732 9.99054e-05
306 1 12.6496 -5.55341 19.9999 0 0 0
307 1 11.9041 -4.32686 19.9999 0 0 0
308 1 12.647 -3.09734 19.9999 0 0 0
309 1 11.9037 -1.86828 19.9999 0 0 0
310 1 12.6457 -0.637745 19.9999 0 0 0
323 1 14.0539 -5.56516 19.9999 0 0 0
324 1 14.0472 -3.10129 19.9999 0 0 0
325 1 14.0438 -0.638188 19.9999 0 0 0
71 1 -13.6826 0.591886 19.9999 0 0 0
72 1 -13.0424 1.82079 19.9999 0 0 0
73 1 -13.6895 3.04359 19.9999 0 0 0
74 1 -13.0413 4.27397 19.9999 0 0 0
75 1 -13.7195 5.48914 19.9999 0 0 0
86 1 -11.5623 1.82169 19.9999 0 0 0
87 1 -11.5564 4.27485 19.9999 0 0 0
96 1 -10.875 0.593147 20.0072 0.00452682 0.0054432 0.000151821
97 1 -10.8648 3.02962 20.0071 0.00774071 -0.00879594 0.000241102
98 1 -10.8476 5.5583 20.0055 0.00833581 0.00787399 0.000193763
111 1 -9.51489 0.542883 20.0025 -0.00900919 0.000572529 0.000522918
112 1 -8.88991 1.81446 20.002 -0.00689993 -0.00211904 0.00114202
113 1 -9.50288 3.06275 20.0094 -0.00170217 -0.00177687 0.000755921
114 1 -8.98675 4.34783 20.012 -0.0082528 -0.00363065 0.000772131
115 1 -9.4911 5.6177 20.0135 0.00699718 -0.00137493 0.000499419
126 1 -7.65238 1.87262 19.9551 -0.0168545 0.0064521 -4.15591e-05
127 1 -7.74782 4.51667 19.9904 -0.0142238 0.00743372 -0.000122219
136 1 -7.23004 0.562732 19.8459 -0.00544391 0.000961113 -0.00905505
137 1 -7.15262 3.27542 19.9427 0.000929861 -0.00382889 -0.00492675
138 1 -7.02141 5.65311 20.0095 -0.0198798 0.0292838 0.00311636
151 1 -5.77472 0.490551 19.8555 0.0139055 -0.0133358 0.00629876
152 1 -5.52504 1.93515 20.247 -0.00409369 0.0233417 -0.00786906
153 1 -5.89971 3.37674 19.7453 0.0120696 -0.0380682 -0.000102334
154 1 -5.08294 4.77674 19.6189 -0.015216 0.0212562 -0.0222433
155 1 -5.63559 6.06218 20.0494 0.0285596 -0.0161787 0.00478191
166 1 -4.32404 2.12227 20.9307 0.00246389 -0.026094 0.0395404
167 1 -3.77666 4.95522 19.312 -0.0066521 -0.0131623 -0.0225259
176 1 -2.88624 2.89703 21.1148 0.0553715 0.0637329 0.0421127
177 1 -2.64701 5.18241 21.6791 0.0557875 0.0447889 0.0679739
178 1 -2.85367 6.20727 19.2351 0.0162076 0.0238357 -0.0439549
191 1 -1.55689 2.36572 19.9733 -0.0622109 0.0966525 0.00976801
192 1 -2.98283 1.52596 21.484 -0.119044 0.052085 0.0386224
193 1 -1.34076 4.89166 21.5404 0.0100611 0.0543535 0.0611537
194 1 -0.339467 4.82334 20.5588 -0.0327909 -0.0141862 0.0324822
195 1 -1.21605 6.20369 19.605 0.0335424 -0.0161927 -0.0127933
215 1 1.05325 0.494615 21.3125 0.0708143 0.102236 0.0679422
206 1 2.47989 0.414688 22.0079 0.00586844 -0.0634354 0.0485766
207 1 1.68762 4.37529 20.3445 0.0423877 0.00463949 0.0109557
217 1 3.15398 4.54663 20.8217 0.047261 0.0459049 0.0314275
218 1 1.88913 6.02983 19.8914 0.0225364 0.00940224 0.0008653
231 1 4.72077 3.04877 21.9553 0.0620361 0.0854687 0.0646349
232 1 6.22101 2.71097 20.9214 0.0716456 -0.00292649 0.0400239
233 1 4.24751 4.41296 21.607 -0.0267363 0.0626739 0.0702807
234 1 4.25586 4.77302 19.7689 -0.0169903 -0.0047899 0.0216351
235 1 3.31542 6.19208 19.7756 -0.0104388 0.0245923 -0.0294888
246 1 6.22665 1.69537 19.4485 -0.00500522 0.00626613 -0.00334217
247 1 5.7524 4.65955 19.51 -0.00277836 0.0272146 -0.0391285
256 1 6.88847 0.483838 19.8272 0.00947588 0.00400018 -0.0163798
257 1 6.75038 3.33806 19.5393 0.0370046 0.0176064 -0.0361334
258 1 6.25135 5.84376 20.0003 0.0111091 9.06492e-05 -0.00453982
275 1 7.6952 5.69071 20.0389 0.013169 0.0222507 0.00496018
273 1 8.09543 3.09889 20.0901 0.0112955 0.00547025 0.00439719
271 1 8.25235 0.58849 19.8871 0.0460831 -0.00418794 -0.00552394
272 1 8.65016 1.9583 19.9761 0.0579072 0.00635864 -0.000568432
274 1 8.4361 4.54135 19.996 0.0415596 0.0266085 0.00199926
286 1 9.92242 1.88767 19.9996 0.0361199 0.00523124 0.000321384
287 1 9.75826 4.32134 20.0033 0.0320219 0.0148348 -0.00053229
296 1 10.5615 0.653778 19.9969 0.0070812 -0.00130478 -0.000394967
297 1 10.5288 3.11331 20.0024 0.00961715 0.000671957 1.73898e-05
298 1 10.4273 5.45214 20.0053 0.0134464 0.0126299 -0.000196836
311 1 11.9034 0.592385 19.9999 0 0 0
312 1 12.6457 1.82255 19.9999 0 0 0
313 1 11.9038 3.05326 19.9999 0 0 0
314 1 12.6466 4.28301 19.9999 0 0 0
315 1 11.9041 5.51379 19.9999 0 0 0
326 1 14.0439 1.82305 19.9999 0 0 0
327 1 14.0468 4.28589 19.9999 0 0 0
76 1 -13.0678 6.73987 19.9999 0 0 0
77 1 -13.743 7.99662 19.9999 0 0 0
78 1 -13.076 9.22053 19.9999 0 0 0
79 1 -13.6781 10.6114 19.9999 0 0 0
80 1 -13.0646 11.9529 19.9999 0 0 0
88 1 -11.5395 6.7281 19.9999 0 0 0
89 1 -11.5535 9.18478 19.9999 0 0 0
90 1 -11.7099 11.6077 19.9999 0 0 0
99 1 -10.8269 7.97018 20.0024 -0.00239225 0.00670444 3.53589e-05
100 1 -10.9027 10.4758 19.9999 0 0 0
116 1 -8.79761 6.84133 20.0146 -0.0031353 0.0071959 0.000339468
117 1 -9.41921 8.03632 20.0092 0.00183487 0.00150853 0.000146793
118 1 -8.63835 9.20624 20.0061 0.00189127 -0.00205441 0.000106879
119 1 -9.37207 10.4804 19.9999 0 0 0
120 1 -8.62688 11.6228 19.9999 0 0 0
130 1 -7.38724 11.6024 19.9999 0 0 0
128 1 -7.55021 6.96998 20.0121 -0.0199909 0.0271362 3.99414e-05
129 1 -7.22037 9.17782 20.0073 0.00703174 -0.00636954 0.000117639
139 1 -6.61958 8.00911 20.0095 -0.0122053 0.00953335 4.88882e-05
140 1 -6.60892 10.469 19.9999 0 0 0
156 1 -4.78731 7.07939 20.0269 -0.0318024 0.0371851 0.00775826
157 1 -5.3686 8.13183 20.0048 -0.00690476 0.0290453 0.000637252
158 1 -4.47796 9.22332 20.0044 0.00429772 0.0142123 3.94469e-06
159 1 -5.14663 10.4689 19.9999 0 0 0
160 1 -4.36691 11.6023 19.9999 0 0 0
168 1 -3.3523 7.08758 20.0448 0.00669706 -0.0280864 0.00259463
169 1 -3.07122 9.4942 19.999 -0.00364868 0.025369 0.000346913
170 1 -3.12269 11.6018 19.9999 0 0 0
179 1 -2.48165 8.27368 20.0105 0.00372714 0.0371196 0.0057388
180 1 -2.34103 10.4689 19.9999 0 0 0
196 1 -0.510142 7.24654 19.8352 -0.0111205 0.0194503 -0.0102326
197 1 -1.07692 8.31467 19.9945 -0.00104053 0.0357105 0.00104861
198 1 -0.232002 9.32982 19.9956 0.00523356 0.02009 0.000905022
199 1 -0.876963 10.4688 19.9999 0 0 0
200 1 -0.0953724 11.6018 19.9999 0 0 0
208 1 0.987405 7.13689 19.8278 0.0120106 -0.00461928 -0.00681246
209 1 1.1192 9.33837 19.992 -0.00995682 0.0159883 5.87285e-05
210 1 1.14924 11.6018 19.9999 0 0 0
219 1 1.82352 8.30483 19.9682 -0.00290381 0.0316226 -0.00123598
220 1 1.93091 10.4688 19.9999 0 0 0
236 1 3.91825 7.24912 19.9782 0.0173558 0.0151565 0.000328269
237 1 3.0743 8.27641 19.988 0.00933947 0.0204633 0.0003962
238 1 3.93152 9.27009 19.9983 0.00538413 0.0155923 0.000270733
239 1 3.39506 10.4687 19.9999 0 0 0
240 1 4.17656 11.6018 19.9999 0 0 0
248 1 5.33808 7.0505 20.0012 0.0149726 0.0112877 0.00195764
249 1 5.33777 9.28111 20.0002 0.00026179 0.0121803 -0.000192316
250 1 5.4212 11.6017 19.9999 0 0 0
259 1 6.13973 8.1573 20.0072 0.0136567 0.0256641 0.000634631
260 1 6.20335 10.4685 19.9999 0 0 0
277 1 7.56812 7.9896 20.0094 0.0103512 0.010851 2.75448e-05
276 1 8.31183 6.75711 20.0122 0.0160492 0.0366965 0.000457154
278 1 8.35788 9.12947 20.0063 0.00624931 0.00628886 -3.08374e-05
279 1 7.66711 10.4687 19.9999 0 0 0
280 1 8.44529 11.6024 19.9999 0 0 0
288 1 9.71812 6.65688 20.0086 0.00667999 0.00664798 -6.51623e-05
289 1 9.7668 9.1082 20.0047 0.000886335 0.00171865 7.05069e-05
290 1 9.6873 11.6101 19.9999 0 0 0
299 1 10.4696 7.87275 20.0054 0.00700599 0.0116637 -3.7965e-06
300 1 10.4752 10.4755 19.9999 0 0 0
316 1 12.6473 6.74288 19.9999 0 0 0
317 1 11.9051 7.97805 19.9999 0 0 0
318 1 12.6583 9.19198 19.9999 0 0 0
319 1 11.9246 10.4937 19.9999 0 0 0
320 1 12.7709 11.5297 19.9999 0 0 0
328 1 14.0456 6.75188 19.9999 0 0 0
329 1 14.0237 9.17042 19.9999 0 0 0
330 1 13.9415 11.792 19.9999 0 0 0
216 1 1.52609 -1.94477 24.3025 0.0449138 -0.062501 0.193196
8 1 -1.17907 -3.74028 28.545 0.00906876 -0.0854933 0.437767
27 1 -2.94447 -0.416412 28.8032 -0.071028 -0.0280229 0.442845
28 1 -1.99653 -2.42692 29.9827 -0.035427 -0.0185377 0.473368
44 1 -2.55154 -1.05159 30.6047 0.00901247 0.00462544 0.456449
52 1 -1.17997 -3.24391 30.8865 -0.0055572 -0.0122961 0.432304
20 1 -2.88726 -1.14994 31.99 -0.0274593 0.0342895 0.470386
36 1 -1.17752 -3.40502 32.3524 0.003154 0.0124242 0.504797
60 1 -1.794 -2.02892 32.7189 0.0479548 -0.0204693 0.542924
4 1 -3.78321 -0.421166 32.8785 0.0441439 -0.02604 0.467043
7 1 0.256683 -3.23949 28.6345 -0.0386365 -0.119686 0.442589
38 1 2.86112 -0.0411101 29.6707 -0.012901 0.0500816 0.458076
26 1 1.70858 -2.50655 30.1715 -0.00133491 -0.0102472 0.479267
40 1 3.0066 -1.857 30.148 0.00927249 0.00686922 0.445809
50 1 0.468679 -2.05803 31.5325 0.00871844 0.0169597 0.496006
16 1 2.98088 -1.60284 31.8062 0.00868182 0.0161592 0.46464
35 1 1.26992 -2.52379 31.4527 -0.0527439 0.0371269 0.445332
2 1 2.55124 -0.684923 32.5846 -0.00103012 0.034482 0.494744
59 1 2.11348 -2.01126 32.5574 0.00535551 -0.0207404 0.480201
12 1 0.212508 -3.49366 33.2289 -0.0180011 -0.0519269 0.532432
57 1 1.53032 -1.79798 34.0308 0.0328766 -0.00938703 0.486471
15 1 2.27318 -0.575372 33.993 -0.0299091 0.0223162 0.489386
51 1 -0.326416 1.70523 28.9387 0.0342286 0.0221737 0.446882
42 1 -4.25823 0.200764 29.5124 -0.0822699 0.0300961 0.468355
32 1 -1.48531 2.28312 29.5124 -0.015905 -0.0232355 0.458759
10 1 -0.122686 2.33239 30.5815 -0.00850407 -0.0231273 0.465856
18 1 -3.60135 0.735694 30.7636 -0.0738391 0.00500931 0.451769
56 1 -2.52985 1.60114 30.478 -0.0120105 0.00765807 0.486856
9 1 -0.195952 3.61757 31.7507 -0.0205956 0.0278612 0.497739
54 1 -1.77477 1.55833 31.7268 0.0815543 -0.042268 0.495333
3 1 -3.473 0.841478 32.4515 -0.0167622 -0.02143 0.494791
30 1 -1.26085 3.26399 32.5221 -0.0143674 0.0116768 0.506101
17 1 -2.4719 1.20565 33.0138 -0.0170661 0.00792299 0.503694
45 1 0.04797 4.39379 33.7646 -0.0401493 0.0310509 0.498931
25 1 2.37404 0.966723 28.7269 0.0260218 0.0435254 0.444893
49 1 1.08548 1.62968 28.6158 0.0136294 0.017031 0.46125
31 1 1.5184 2.76278 29.9571 0.0477459 0.0117282 0.465601
55 1 1.87756 2.05067 31.2169 -0.0307136 0.0106806 0.443928
14 1 2.68947 1.00175 30.9518 -0.00441616 0.00121426 0.459166
1 1 3.18826 0.598874 32.078 -0.0284284 -0.00554126 0.504697
53 1 2.32866 2.83506 32.5048 -0.00228511 -0.00274519 0.541257
29 1 1.27535 3.93598 32.2237 0.0241815 0.00246628 0.495142
13 1 3.43979 1.79699 32.9933 0.0222354 0.031564 0.483578
58 1 -2.19205 -2.10516 34.1356 -0.00028591 -0.0193069 0.496792
19 1 -3.17509 -1.17831 34.2346 -0.00450142 0.0181907 0.53291
34 1 -1.0786 -2.9899 34.9787 -0.031224 0.00728797 0.478403
48 1 -0.819451 -1.85288 35.8551 0.00476399 -0.00184295 0.506769
24 1 -1.63039 -1.0882 35.9618 -0.00929423 -0.0276494 0.51209
43 1 -2.67462 -0.12194 35.2502 0.0143169 -0.0066263 0.499109
11 1 0.2867 -3.42967 34.6842 0.00728661 0.0121293 0.471717
33 1 0.97906 -2.1379 35.1877 -0.0360018 0.0157916 0.492225
46 1 1.0887 -1.16673 35.8977 0.00158429 0.0368728 0.476129
47 1 -1.22154 3.59684 34.3346 0.0142598 0.0185749 0.506753
41 1 -2.67791 1.10535 34.4693 0.0118425 -0.0130271 0.489363
23 1 -2.13167 2.36017 34.6866 -0.0374278 -0.0436769 0.480216
6 1 -0.303283 2.33238 35.723 0.0165034 0.0283051 0.500399
21 1 -0.0230172 3.28802 35.397 0.00844394 0.0624024 0.510528
5 1 0.103296 1.35769 35.3209 -0.0245595 -0.0327865 0.496434
37 1 3.90002 1.07464 34.2663 0.01071 -0.0354923 0.516984
39 1 2.61386 0.803399 35.0716 0.00565669 0.0171152 0.500795
22 1 1.11012 0.165091 35.5377 -0.0266596 0.0142849 0.519563
