ITEM: TIMESTEP
7800
ITEM: NUMBER OF ATOMS
330
ITEM: BOX BOUNDS pp pp pp
-1.4715758017245314e+01 1.5057610017245315e+01
-1.2710055654020760e+01 1.2664508654020761e+01
-5.0001035148846022e+01 1.0000103514884636e+02
ITEM: ATOMS id type x y z vx vy vz
8 1 -0.697519 -1.29406 15.6908 -0.00378452 0.00441068 0.487997
27 1 -1.42075 -0.0882158 15.6047 0.00226308 -0.00780237 0.492385
28 1 -1.49403 -2.27128 16.399 0.00373276 -0.00353622 0.498149
42 1 -2.68451 -0.2567 16.3072 0.00254872 -0.00063706 0.49711
7 1 0.722643 -1.2773 15.7038 0.000941447 -0.000423619 0.489171
25 1 1.43148 -0.101225 15.6015 -0.00119961 -0.000267524 0.491875
26 1 1.47936 -2.23306 16.4047 -0.00316071 -0.00191794 0.497
38 1 2.68853 -0.251261 16.3098 -0.0036953 4.87312e-06 0.497506
10 1 0.00658671 2.91758 16.6903 0.00386797 0.00146701 0.495206
32 1 -1.1809 2.2512 16.2091 -0.00119843 0.00172773 0.501654
51 1 -0.705911 1.11468 15.5143 0.000689391 -0.00117891 0.492764
31 1 1.19085 2.26045 16.2076 -0.00371768 -0.00343981 0.498508
49 1 0.71399 1.09324 15.5134 0.00374208 0.00154429 0.498877
61 1 -13.6674 -11.9461 19.9999 0 0 0
62 1 -13.1228 -10.6724 19.9999 0 0 0
63 1 -13.7825 -9.34696 19.9999 0 0 0
64 1 -13.0772 -8.00396 19.9999 0 0 0
65 1 -13.7542 -6.79742 19.9999 0 0 0
81 1 -11.507 -10.5408 19.9999 0 0 0
82 1 -11.5331 -8.01671 19.9999 0 0 0
91 1 -10.7591 -11.6424 19.9999 0 0 0
92 1 -10.9143 -9.25328 20.0006 0.00115736 0.00760198 8.27679e-06
93 1 -10.9455 -6.78318 20.0017 0.00085633 -0.00438352 5.09925e-05
101 1 -9.52473 -11.6468 19.9999 0 0 0
102 1 -8.74136 -10.5124 19.9999 0 0 0
103 1 -9.50231 -9.32914 20.0021 -0.00318231 -0.00468897 2.53045e-05
104 1 -8.96755 -8.04349 20.0059 -0.00558454 0.000312314 0.000158409
105 1 -9.60503 -6.81056 20.0062 -0.00758622 0.00133806 0.000184606
121 1 -7.27873 -10.5146 19.9999 0 0 0
122 1 -7.59376 -8.04507 20.0075 -0.00362124 0.000522634 0.000208406
131 1 -6.50232 -11.6488 19.9999 0 0 0
132 1 -6.79818 -9.21471 20.0046 0.00133575 0.00337403 0.000147027
133 1 -6.92737 -6.85352 20.0045 0.00632957 0.00628871 0.000106358
141 1 -5.25854 -11.6473 19.9999 0 0 0
142 1 -4.47674 -10.5145 19.9999 0 0 0
143 1 -5.41554 -9.33275 20.0043 0.000656606 0.00720982 8.50775e-05
144 1 -4.74486 -8.14658 19.9999 0.000229986 0.000472926 -8.90073e-06
145 1 -5.51279 -6.94286 19.996 0.00754673 0.0014692 -0.000190196
161 1 -3.01281 -10.5144 19.9999 0 0 0
162 1 -3.29658 -8.15071 19.9935 -0.00152802 0.00374443 -0.000148388
171 1 -2.23133 -11.6474 19.9999 0 0 0
172 1 -2.37552 -9.2153 19.9979 -0.00240583 0.000757612 -2.1889e-06
173 1 -2.59992 -6.93977 19.9702 -0.000372117 -0.00352365 -0.000574351
181 1 -0.986751 -11.6474 19.9999 0 0 0
182 1 -0.205108 -10.5143 19.9999 0 0 0
183 1 -0.977642 -9.20034 19.9968 0.000726495 0.00219862 -7.27051e-05
184 1 -0.276622 -7.9866 19.9847 -0.000941875 -0.00298626 -0.000233819
185 1 -1.15819 -6.84836 19.9607 -0.00266756 0.00548045 -0.000718749
201 1 1.25901 -10.5143 19.9999 0 0 0
202 1 1.19609 -7.9888 19.9858 -0.00464856 -0.0022531 -0.00040546
211 1 2.0406 -11.6474 19.9999 0 0 0
212 1 1.97877 -9.18328 19.9987 -0.0065653 -0.00137048 -0.000209919
213 1 1.82947 -6.73019 19.9685 -0.0102186 0.000648809 -0.000740972
221 1 3.28523 -11.6473 19.9999 0 0 0
222 1 4.06705 -10.5143 19.9999 0 0 0
223 1 3.38406 -9.16045 20.0007 -0.00811038 -0.00180289 -0.00024374
224 1 4.04562 -7.89011 19.9992 -0.0109369 -0.011533 -0.000304748
225 1 3.28705 -6.64155 19.9799 -0.00991751 -0.0118748 -0.000526844
241 1 5.53108 -10.5143 19.9999 0 0 0
242 1 5.46898 -7.88274 20.0052 -0.00712227 -0.00497907 -9.42581e-05
251 1 6.31174 -11.6474 19.9999 0 0 0
252 1 6.14901 -9.16381 20.0052 0.00201131 0.00371872 9.23838e-05
253 1 6.15483 -6.6223 20.0034 -0.0076541 -0.00535044 -0.000239484
261 1 7.55524 -11.6498 19.9999 0 0 0
263 1 7.54085 -9.25228 20.0048 0.004282 0.00259483 0.000111379
265 1 7.58589 -6.76538 20.0093 -0.00480278 0.00968226 4.39242e-05
262 1 8.33779 -10.5154 19.9999 0 0 0
264 1 8.25106 -8.03865 20.0079 -0.00934131 0.00799012 0.000186752
281 1 9.79556 -10.5245 19.9999 0 0 0
282 1 9.69574 -8.02679 20.0047 -0.00904213 0.0133089 0.000158148
291 1 10.5816 -11.6418 19.9999 0 0 0
292 1 10.5101 -9.20825 20.001 -0.00330044 0.00327678 3.65376e-05
293 1 10.4399 -6.80868 20.0045 0.00293515 0.00256988 8.31871e-05
301 1 11.8019 -11.7522 19.9999 0 0 0
302 1 12.7161 -10.5156 19.9999 0 0 0
303 1 11.8934 -9.22642 19.9999 0 0 0
304 1 12.655 -8.00627 19.9999 0 0 0
305 1 11.8992 -6.77596 19.9999 0 0 0
321 1 14.087 -10.4984 19.9999 0 0 0
322 1 14.0714 -8.01298 19.9999 0 0 0
66 1 -13.0658 -5.54976 19.9999 0 0 0
67 1 -13.7179 -4.30197 19.9999 0 0 0
68 1 -13.0406 -3.0891 19.9999 0 0 0
69 1 -13.6883 -1.86008 19.9999 0 0 0
70 1 -13.0424 -0.636745 19.9999 0 0 0
83 1 -11.5387 -5.54743 19.9999 0 0 0
84 1 -11.5566 -3.09089 19.9999 0 0 0
85 1 -11.5625 -0.637245 19.9999 0 0 0
94 1 -10.9355 -4.3132 20.0024 -0.00310145 0.00389787 7.33743e-05
95 1 -10.9623 -1.85906 20.0018 -0.00403758 -0.00143445 0.000112658
106 1 -8.91372 -5.67215 20.0069 -0.0114415 0.00217938 0.000169808
107 1 -9.54555 -4.4218 20.0049 -0.00591021 -0.00508912 0.000169133
108 1 -9.02706 -3.12877 20.0001 -0.010764 -0.00126284 0.000120707
109 1 -9.59495 -1.86679 19.9998 -0.000446838 -0.00504459 0.000106794
110 1 -8.99571 -0.598626 19.994 -0.000325856 -0.00484994 -6.59648e-05
123 1 -7.59541 -5.66483 20.0032 -0.00818075 -0.0018631 0.000149561
124 1 -7.67787 -3.20268 19.988 -0.00626283 -0.00993493 -5.99597e-05
125 1 -7.62252 -0.680788 19.9709 0.00218387 0.00510393 -0.000610411
44 1 -2.70999 -1.58002 16.82 0.00415791 0.0022561 0.498105
52 1 -0.747175 -3.16184 17.2029 0.0017786 0.000603515 0.502704
20 1 -3.19589 -1.82742 18.141 0.00218269 0.00355333 0.500203
36 1 -1.2124 -3.35361 18.5273 -0.00161196 0.00219493 0.488701
4 1 -3.61928 -0.654806 18.874 0.00562252 0.00683925 0.479218
12 1 -0.019446 -3.41684 19.2445 -0.00692642 -0.0100206 0.471946
60 1 -2.40206 -2.70747 18.9364 0.00895534 -0.00332929 0.467682
11 1 0.0268481 -2.78631 20.4186 0.0348305 -0.0216088 0.477226
19 1 -3.18138 -0.933118 20.1523 -0.00165386 -0.0219616 0.466416
58 1 -2.41087 -2.07396 20.2031 0.00971683 0.00621408 0.472762
34 1 -1.05006 -2.30806 20.808 0.0464442 -0.0587656 0.467899
48 1 -0.898555 -1.14759 21.6482 -0.0367718 -0.0239911 0.493229
134 1 -6.98069 -4.40736 19.9883 -0.000349898 -0.00708468 -0.00024775
135 1 -7.02849 -1.9733 19.9642 0.00434006 -0.000893165 -0.00102976
146 1 -4.84564 -5.69776 19.9698 -0.00316779 0.00957058 -0.000765433
147 1 -5.54846 -4.43087 19.9616 -0.00692075 0.00369666 -0.00087465
148 1 -4.80667 -3.21808 19.9174 -0.0160388 0.00260674 -0.00141252
149 1 -5.56264 -1.94724 19.9206 0.00881256 -0.00084086 -0.00163808
150 1 -4.90043 -0.699986 19.8876 -0.0165438 -0.00723009 0.00654242
163 1 -3.41849 -5.7617 19.9484 0.0127118 0.00973024 -0.00155609
164 1 -3.39871 -3.26851 19.9083 -0.0187218 -0.0125176 0.0146928
165 1 -3.54747 -0.757705 19.9255 -0.0303607 -0.013541 0.0266489
174 1 -2.69305 -4.5214 19.8984 0.00410468 0.00624638 -0.0012731
175 1 -2.93163 -1.93683 19.9415 -0.0731012 0.00307923 0.0420971
186 1 -0.461345 -5.62992 19.9205 -0.00451266 0.0151909 -0.00166949
187 1 -1.28703 -4.49389 19.8789 -0.0107542 0.000991103 0.00101059
188 1 -0.573867 -3.32523 19.9319 0.00135072 -0.0250911 0.0346579
189 1 -1.41341 -1.99726 20.0051 -0.0473483 0.0212444 0.0391425
190 1 -0.694127 -0.495524 19.9996 -0.00674582 0.0591619 0.0225451
40 1 2.68738 -1.60155 16.8417 -0.00410277 -0.000790828 0.500775
50 1 0.741403 -3.15336 17.1994 -0.000398112 -0.000150898 0.498646
16 1 3.18057 -1.81779 18.1732 -0.005207 0.00290823 0.502477
35 1 1.22198 -3.35243 18.5439 0.00124503 0.000818843 0.486294
2 1 3.6084 -0.68435 18.8738 -0.00124767 0.00132603 0.490303
59 1 2.4195 -2.6657 18.9516 -0.0057832 0.00519539 0.484908
15 1 3.16627 -0.918746 20.1352 -0.00385182 -0.0193004 0.464538
57 1 2.30835 -2.02859 20.1362 -0.0829265 0.0460127 0.449671
33 1 1.22799 -2.32541 20.8207 0.012576 -0.0551273 0.472711
46 1 0.820667 -1.09403 21.6355 0.0180783 -0.0137263 0.4933
203 1 0.989052 -5.56451 19.9279 -0.00403178 0.00551764 -0.00112185
204 1 0.867327 -3.21015 19.958 0.0217486 -0.0182429 0.0438966
205 1 0.901218 -0.459836 19.9837 0.0124797 0.0577696 0.0259421
214 1 1.63527 -4.33395 19.897 0.00300707 -0.00834409 0.00260321
215 1 1.52636 -1.87887 19.9957 -0.00157777 0.0126426 0.0313496
226 1 3.91203 -5.37558 19.9637 -0.0127762 -0.0200008 -0.000675491
227 1 3.06566 -4.20728 19.9212 0.00322871 -0.00242374 0.000574929
228 1 3.90568 -3.0757 19.9556 0.0701242 -0.0556731 0.0275596
229 1 2.98489 -1.8621 19.9323 0.027134 -0.0121395 0.0301042
230 1 3.79367 -0.680096 19.968 0.0265676 -0.00519263 0.0235488
243 1 5.37524 -5.38594 19.9842 -0.0173983 -0.0118863 -0.000652641
244 1 5.26702 -3.05224 19.9495 -0.0134118 -0.000786341 -0.00120884
245 1 5.25659 -0.637485 19.9273 0.013412 -0.00304181 -0.000711056
254 1 6.15984 -4.21689 19.9823 -0.00730638 -0.00961019 -0.000774116
255 1 6.03437 -1.82279 19.9567 0.00633121 0.00252573 -0.000926899
269 1 7.52545 -1.86515 19.9875 0.00608761 0.000995768 -0.000545674
267 1 7.6176 -4.34192 20.0011 -0.00115105 -0.00160277 -0.000314791
266 1 8.35149 -5.57128 20.0087 -0.00402789 0.00334506 1.83992e-05
268 1 8.30423 -3.10237 20.0005 0.00338815 0.00114984 -0.000299213
270 1 8.19455 -0.628254 19.9939 0.00448222 -0.000100541 -0.000444297
283 1 9.77256 -5.55739 20.0078 -0.00121766 8.49991e-05 0.000122609
284 1 9.75702 -3.0757 20.0061 0.00506322 0.00311223 -7.03971e-05
285 1 9.6677 -0.66378 20.0038 0.00504126 -0.00275243 -0.000196127
294 1 10.5072 -4.3048 20.0054 0.00109322 -0.00175393 3.21771e-05
295 1 10.4739 -1.84889 20.0045 0.00570513 -0.00178137 -0.000124977
306 1 12.6496 -5.55341 19.9999 0 0 0
307 1 11.9041 -4.32686 19.9999 0 0 0
308 1 12.647 -3.09734 19.9999 0 0 0
309 1 11.9037 -1.86828 19.9999 0 0 0
310 1 12.6457 -0.637745 19.9999 0 0 0
323 1 14.0539 -5.56516 19.9999 0 0 0
324 1 14.0472 -3.10129 19.9999 0 0 0
325 1 14.0438 -0.638188 19.9999 0 0 0
71 1 -13.6826 0.591886 19.9999 0 0 0
72 1 -13.0424 1.82079 19.9999 0 0 0
73 1 -13.6895 3.04359 19.9999 0 0 0
74 1 -13.0413 4.27397 19.9999 0 0 0
75 1 -13.7195 5.48914 19.9999 0 0 0
86 1 -11.5623 1.82169 19.9999 0 0 0
87 1 -11.5564 4.27485 19.9999 0 0 0
96 1 -10.9712 0.576255 20.0017 -0.000162788 0.00162387 0.00012738
97 1 -10.9569 3.07965 20.002 -0.000598401 -0.0064091 8.20552e-05
98 1 -10.9348 5.52605 20.002 -0.00465838 0.00884742 5.03588e-05
111 1 -9.60238 0.653017 19.9979 0.00251699 0.000120178 -1.37059e-05
112 1 -9.01296 1.88696 19.9962 -0.00906002 0.00541023 2.50957e-05
113 1 -9.59085 3.13827 20.002 -0.00345561 0.00606378 9.2473e-05
114 1 -8.88724 4.3278 20.0035 -0.0107603 0.00317308 0.000139007
115 1 -9.54715 5.53437 20.0058 -0.0111011 0.0016058 0.000143468
126 1 -7.64147 1.85935 19.9776 -0.00488893 -0.000932483 -0.000404781
127 1 -7.50079 4.35042 19.994 -0.00108563 0.00357877 -7.16686e-05
18 1 -3.15886 0.901197 17.0322 0.000439197 0.00113168 0.502456
56 1 -2.38393 2.13543 17.0076 0.00507305 0.000800975 0.509007
3 1 -3.61416 0.6526 18.3702 0.00177177 -0.00483644 0.499071
9 1 -0.0136128 3.42078 17.9985 -0.00187841 0.00895322 0.499602
54 1 -2.37629 2.66466 18.3368 0.00354689 -0.00309782 0.491
30 1 -1.19577 3.29513 18.7638 -0.0134862 -0.00718158 0.480525
17 1 -3.17351 1.76784 19.1106 -0.0103869 -0.007234 0.463131
41 1 -2.7131 1.53507 20.3733 0.00173292 -0.0278619 0.463074
47 1 -0.722764 3.14713 20.0064 0.00901067 0.00981491 0.459422
6 1 -1.01191 1.14526 21.4453 -0.0524343 -0.0184439 0.48996
23 1 -1.50414 2.45396 20.7339 -0.0061406 0.0867966 0.464549
24 1 -1.42345 0.0778854 21.5805 0.0125838 -0.0123461 0.49186
43 1 -2.75033 0.225005 20.8501 -0.0102593 -0.00801738 0.48017
136 1 -6.95966 0.587003 19.954 0.00670683 -0.000511597 -0.00118397
137 1 -6.87118 3.07632 19.972 -0.000582681 -0.00137837 -0.000672921
138 1 -6.81076 5.57973 19.9965 0.0121335 -0.00135964 -0.000217253
151 1 -5.49353 0.58196 19.9053 0.0135211 -0.0016205 -0.00186414
152 1 -4.81553 1.84674 19.8948 -0.0136177 0.00432909 -0.00126221
153 1 -5.42588 3.09494 19.9359 -0.00503665 0.00064565 -0.00102973
154 1 -4.69153 4.3417 19.9416 -0.00750685 -0.0052362 -0.00107416
155 1 -5.40152 5.57819 19.979 0.00194487 0.00168264 -0.00061778
166 1 -3.43464 1.93621 19.8789 -0.0202696 0.0249998 0.0131401
167 1 -3.28016 4.37342 19.9071 -0.00284575 0.00177739 -0.00181223
176 1 -2.90444 0.586342 20.017 -0.0375035 0.017854 0.0471402
177 1 -2.65976 3.17872 19.9598 -0.00118051 0.0499028 0.0385187
178 1 -2.61509 5.64542 19.9368 -0.000455868 -0.00473516 -0.00149055
191 1 -1.24185 0.421939 19.8845 0.0407772 -0.0663501 0.0060076
192 1 -0.761933 1.89764 20.0025 -0.0454753 -0.000811635 0.0393852
193 1 -1.29619 3.1958 19.9057 -0.0216433 0.0226379 0.0219961
194 1 -0.482612 4.41226 19.9018 0.00973268 0.0120994 0.0160592
195 1 -1.19988 5.64788 19.9242 -0.00678988 -0.00721142 -0.0016176
14 1 3.14741 0.891036 17.0129 -0.000665111 -0.00374462 0.501326
55 1 2.39451 2.12878 16.9928 -0.00909759 0.00251286 0.499708
1 1 3.6256 0.643677 18.3554 0.000961888 -0.00667295 0.498046
53 1 2.38986 2.6705 18.3073 -0.00458014 0.00203414 0.498366
29 1 1.21231 3.30085 18.7375 0.00760423 -0.00405907 0.478609
13 1 3.16978 1.7806 19.1017 0.000106617 0.000624664 0.463413
37 1 2.76047 1.6451 20.3586 0.024093 0.0354696 0.462799
45 1 0.684707 3.16512 20.0198 -0.0100993 0.0110553 0.464854
5 1 0.82245 1.19436 21.4421 0.0300981 -0.0137618 0.48583
21 1 1.30022 2.39289 20.6781 -0.0730401 0.0793732 0.446458
22 1 1.30591 0.100754 21.5623 -0.0411374 -0.00879347 0.482568
39 1 2.72022 0.274119 20.8545 -0.00694019 0.00278309 0.470095
206 1 1.07647 1.86133 20.0567 0.0766902 -0.00455768 0.0531049
207 1 0.923507 4.32693 19.9129 -0.0144009 0.0203968 0.0167955
216 1 1.41159 0.272463 20.0915 -0.0711569 -0.142644 0.0707667
217 1 1.57744 3.04452 19.9394 0.0219493 0.015186 0.0262956
218 1 1.78156 5.46487 19.933 0.00573912 0.000369662 -0.00164143
231 1 3.17076 0.63665 20.0204 0.0680477 0.0278247 0.0478015
232 1 3.81223 1.7862 19.9167 0.0209814 0.0147688 0.0119927
233 1 3.18162 3.06925 19.979 0.0845264 0.0517006 0.0382696
234 1 3.85418 4.09721 19.9347 0.00159634 0.00613886 -0.00141445
235 1 3.22078 5.35841 19.9527 -0.00596949 0.00472656 -0.000721704
246 1 5.24071 1.80336 19.9305 0.00166952 -0.00234028 -0.00196512
247 1 5.25892 4.17179 19.9646 -0.0105547 0.0125587 -0.000987473
256 1 5.94304 0.582897 19.9472 0.00854859 -0.00401479 -0.000830799
257 1 5.98775 2.99451 19.9632 -0.00369191 0.00518621 -0.00106536
258 1 6.10834 5.3307 19.9928 -0.0137354 0.0094978 -0.000588508
271 1 7.43057 0.593875 19.9815 0.00731658 -0.00675064 -0.000607211
273 1 7.4705 3.04193 19.9906 -0.00329206 0.00121706 -0.000570182
275 1 7.5763 5.47653 20.0054 -0.00997043 0.00461723 -0.000188409
272 1 8.18434 1.81138 19.9952 -0.0048229 -0.00131376 -0.000505231
274 1 8.27596 4.26147 20.0045 -0.00758856 0.00225543 -0.000205207
286 1 9.68157 1.75682 20.0049 -0.00406402 -0.00280825 -0.000153387
287 1 9.74478 4.23635 20.0075 -0.00646269 0.00115849 3.26452e-05
296 1 10.4385 0.539486 20.0045 -0.000101175 0.00523454 -0.000110473
297 1 10.4939 2.98667 20.0052 -0.00197558 -0.000158696 -6.1061e-06
298 1 10.4756 5.50313 20.0053 0.00271563 -0.00264296 6.54771e-05
311 1 11.9034 0.592385 19.9999 0 0 0
312 1 12.6457 1.82255 19.9999 0 0 0
313 1 11.9038 3.05326 19.9999 0 0 0
314 1 12.6466 4.28301 19.9999 0 0 0
315 1 11.9041 5.51379 19.9999 0 0 0
326 1 14.0439 1.82305 19.9999 0 0 0
327 1 14.0468 4.28589 19.9999 0 0 0
76 1 -13.0678 6.73987 19.9999 0 0 0
77 1 -13.743 7.99662 19.9999 0 0 0
78 1 -13.076 9.22053 19.9999 0 0 0
79 1 -13.6781 10.6114 19.9999 0 0 0
80 1 -13.0646 11.9529 19.9999 0 0 0
88 1 -11.5395 6.7281 19.9999 0 0 0
89 1 -11.5535 9.18478 19.9999 0 0 0
90 1 -11.7099 11.6077 19.9999 0 0 0
99 1 -10.9291 7.93555 20.0013 0.00673766 0.00279617 4.60215e-05
100 1 -10.9027 10.4758 19.9999 0 0 0
116 1 -8.93987 6.757 20.0072 -0.0131405 -0.00210533 0.00019462
117 1 -9.55877 7.9775 20.0047 -0.00435008 0.0057707 0.000112009
118 1 -8.79316 9.1689 20.0036 -9.53127e-05 -0.000665213 7.55991e-05
119 1 -9.37207 10.4804 19.9999 0 0 0
120 1 -8.62688 11.6228 19.9999 0 0 0
130 1 -7.38724 11.6024 19.9999 0 0 0
128 1 -7.53496 6.78691 20.007 -0.00241237 0.00595798 0.000195955
129 1 -7.41831 9.26955 20.0045 -0.0040643 -0.00123222 8.33234e-05
139 1 -6.80436 8.01839 20.0059 0.00285441 -0.00163726 0.000146626
140 1 -6.60892 10.469 19.9999 0 0 0
156 1 -4.75349 6.83436 19.9883 0.00552057 -0.00376913 -0.000430773
157 1 -5.40525 8.06123 20.0027 -0.00294641 -0.00608418 2.29836e-05
158 1 -4.52693 9.1772 20.0022 -0.00524265 -0.00204354 6.48943e-05
159 1 -5.14663 10.4689 19.9999 0 0 0
160 1 -4.36691 11.6023 19.9999 0 0 0
168 1 -3.32046 6.86323 19.9759 0.0107667 -0.00338308 -0.000766305
169 1 -3.10263 9.22337 19.9997 0.00295853 -0.000376051 -6.37905e-05
170 1 -3.12269 11.6018 19.9999 0 0 0
179 1 -2.46168 8.00781 19.9888 -0.00235511 -4.83901e-05 -0.000221648
180 1 -2.34103 10.4689 19.9999 0 0 0
196 1 -0.319528 6.79247 19.9584 -0.00891825 -0.00316091 -0.000728695
197 1 -1.04679 7.99729 19.9842 -0.00714141 -0.00443555 -0.000349782
198 1 -0.272519 9.19272 19.9959 -0.00706904 -0.000982802 -0.000141566
199 1 -0.876963 10.4688 19.9999 0 0 0
200 1 -0.0953724 11.6018 19.9999 0 0 0
208 1 1.1391 6.72728 19.9617 -0.00418666 -0.00536775 -0.00091191
209 1 1.17354 9.17098 19.9963 -0.00583065 -0.00436304 -0.000175091
210 1 1.14924 11.6018 19.9999 0 0 0
219 1 1.92113 7.93841 19.9884 -0.00719004 0.00107134 -0.000409084
220 1 1.93091 10.4688 19.9999 0 0 0
236 1 4.0067 6.58514 19.9858 -0.0111306 0.0103147 -0.000518974
237 1 3.38747 7.88323 19.9946 -0.0128874 0.0134201 -0.000317272
238 1 4.10245 9.13028 20.0019 0.00196056 0.00073638 -0.000130348
239 1 3.39506 10.4687 19.9999 0 0 0
240 1 4.17656 11.6018 19.9999 0 0 0
248 1 5.42444 6.56629 19.998 -0.0101948 0.012342 -0.000280771
249 1 5.51601 9.12825 20.0045 0.000339811 0.00622278 -5.59329e-05
250 1 5.4212 11.6017 19.9999 0 0 0
259 1 6.18069 7.8269 20.0065 -0.0055697 0.00469402 -5.27555e-05
260 1 6.20335 10.4685 19.9999 0 0 0
276 1 8.32105 6.71541 20.009 -0.00214348 -0.0035059 0.000112649
277 1 7.62313 7.91885 20.0079 -0.00917881 -0.00533425 0.000128263
278 1 8.31539 9.17765 20.0039 -0.00569608 -0.00298182 0.000113597
279 1 7.66711 10.4687 19.9999 0 0 0
280 1 8.44529 11.6024 19.9999 0 0 0
288 1 9.7542 6.7535 20.0066 -0.00327832 -0.00549072 0.000143
289 1 9.73627 9.22062 20.0023 -0.00671343 -0.0108183 9.13945e-05
290 1 9.6873 11.6101 19.9999 0 0 0
299 1 10.4816 8.01651 20.0029 -0.00698919 -0.00667042 0.000105369
300 1 10.4752 10.4755 19.9999 0 0 0
316 1 12.6473 6.74288 19.9999 0 0 0
317 1 11.9051 7.97805 19.9999 0 0 0
318 1 12.6583 9.19198 19.9999 0 0 0
319 1 11.9246 10.4937 19.9999 0 0 0
320 1 12.7709 11.5297 19.9999 0 0 0
328 1 14.0456 6.75188 19.9999 0 0 0
329 1 14.0237 9.17042 19.9999 0 0 0
330 1 13.9415 11.792 19.9999 0 0 0
