ITEM: TIMESTEP
16400
ITEM: NUMBER OF ATOMS
330
ITEM: BOX BOUNDS pp pp pp
-1.4715758017245314e+01 1.5057610017245315e+01
-1.2710055654020760e+01 1.2664508654020761e+01
-5.0001035148846022e+01 1.0000103514884636e+02
ITEM: ATOMS id type x y z vx vy vz
61 1 -13.6674 -11.9461 19.9999 0 0 0
62 1 -13.1228 -10.6724 19.9999 0 0 0
63 1 -13.7825 -9.34696 19.9999 0 0 0
64 1 -13.0772 -8.00396 19.9999 0 0 0
65 1 -13.7542 -6.79742 19.9999 0 0 0
81 1 -11.507 -10.5408 19.9999 0 0 0
82 1 -11.5331 -8.01671 19.9999 0 0 0
91 1 -10.7591 -11.6424 19.9999 0 0 0
92 1 -10.8975 -9.25668 20.0004 -0.000725445 -0.00516199 -2.06245e-05
93 1 -10.9684 -6.78026 20.0025 0.00131451 0.00124532 6.56366e-05
101 1 -9.52473 -11.6468 19.9999 0 0 0
102 1 -8.74136 -10.5124 19.9999 0 0 0
103 1 -9.4858 -9.28388 20.0028 0.00813935 -0.00195235 3.06538e-05
104 1 -8.87095 -8.06304 20.0093 0.0184899 0.000766062 0.000255524
105 1 -9.58964 -6.87761 20.0105 0.00588808 -6.5817e-05 0.000303664
121 1 -7.27873 -10.5146 19.9999 0 0 0
122 1 -7.46101 -8.08079 20.0113 0.0167004 -0.00724282 0.000255613
131 1 -6.50232 -11.6488 19.9999 0 0 0
132 1 -6.65488 -9.23953 20.0074 0.014534 -0.0058077 0.00015019
133 1 -6.84044 -6.84885 20.008 -0.00058396 0.00083926 0.000351992
141 1 -5.25854 -11.6473 19.9999 0 0 0
142 1 -4.47674 -10.5145 19.9999 0 0 0
143 1 -5.24946 -9.30656 20.0056 0.011805 0.000917691 9.00989e-05
144 1 -4.61237 -8.03317 19.9991 0.0130536 0.00653208 -1.5996e-05
145 1 -5.39272 -6.80834 19.9933 0.000661283 0.000761702 0.000418729
161 1 -3.01281 -10.5144 19.9999 0 0 0
162 1 -3.18355 -8.09909 19.9923 0.0155709 0.00439351 0.000140841
171 1 -2.23133 -11.6474 19.9999 0 0 0
172 1 -2.37407 -9.26034 19.9992 0.00420807 -0.0046741 0.000211112
173 1 -2.4797 -6.90543 19.9523 0.0106479 -0.0183337 -0.00120965
181 1 -0.986751 -11.6474 19.9999 0 0 0
182 1 -0.205108 -10.5143 19.9999 0 0 0
183 1 -0.980489 -9.29799 19.9964 0.00128577 0.00035081 -1.68634e-05
184 1 -0.362072 -8.01131 19.9757 -0.0146043 -0.0128124 -0.000661355
185 1 -1.15607 -6.94386 19.9521 -0.00561677 -0.0211954 0.000620337
201 1 1.25901 -10.5143 19.9999 0 0 0
202 1 1.0344 -8.07615 19.983 -0.0149895 -0.0159431 0.000138864
211 1 2.0406 -11.6474 19.9999 0 0 0
212 1 1.8244 -9.22555 19.9934 -0.00284513 -0.007421 -0.00024825
213 1 1.66452 -7.06169 19.8865 0.00117838 -0.0422707 -0.0135843
221 1 3.28523 -11.6473 19.9999 0 0 0
222 1 4.06705 -10.5143 19.9999 0 0 0
223 1 3.22729 -9.30963 19.9966 -0.0107194 -0.00524227 -0.000206081
224 1 3.90605 -8.06314 19.9922 -0.00420669 -0.0168521 -0.000331204
225 1 3.1143 -6.90848 19.9598 0.00124097 -0.0224688 -0.00336113
241 1 5.53108 -10.5143 19.9999 0 0 0
242 1 5.34314 -8.04151 20.002 -0.00686391 -0.0119901 -0.000237611
251 1 6.31174 -11.6474 19.9999 0 0 0
252 1 6.1986 -9.20317 20.0058 0.00378081 -0.00303162 -1.17536e-05
253 1 6.02868 -6.80636 20.0001 0.000409333 -0.0173868 0.000247455
261 1 7.55524 -11.6498 19.9999 0 0 0
263 1 7.61564 -9.15821 20.0067 0.00707116 0.00630735 8.52212e-05
265 1 7.47829 -6.64846 20.0091 -6.75948e-05 -0.00101549 2.07143e-05
262 1 8.33779 -10.5154 19.9999 0 0 0
264 1 8.25051 -7.88143 20.0105 0.00547429 0.00246951 7.06728e-05
281 1 9.79556 -10.5245 19.9999 0 0 0
282 1 9.72845 -7.9408 20.0069 0.00738003 0.00330057 0.00011479
291 1 10.5816 -11.6418 19.9999 0 0 0
292 1 10.4752 -9.16911 20.0021 0.0111835 -0.00412219 6.02257e-05
293 1 10.4935 -6.71873 20.006 -0.00562957 0.00494205 0.000116002
301 1 11.8019 -11.7522 19.9999 0 0 0
302 1 12.7161 -10.5156 19.9999 0 0 0
303 1 11.8934 -9.22642 19.9999 0 0 0
304 1 12.655 -8.00627 19.9999 0 0 0
305 1 11.8992 -6.77596 19.9999 0 0 0
321 1 14.087 -10.4984 19.9999 0 0 0
322 1 14.0714 -8.01298 19.9999 0 0 0
66 1 -13.0658 -5.54976 19.9999 0 0 0
67 1 -13.7179 -4.30197 19.9999 0 0 0
68 1 -13.0406 -3.0891 19.9999 0 0 0
69 1 -13.6883 -1.86008 19.9999 0 0 0
70 1 -13.0424 -0.636745 19.9999 0 0 0
83 1 -11.5387 -5.54743 19.9999 0 0 0
84 1 -11.5566 -3.09089 19.9999 0 0 0
85 1 -11.5625 -0.637245 19.9999 0 0 0
94 1 -11.0038 -4.3457 20.0042 -0.00849506 0.00377254 0.000147454
95 1 -10.9578 -1.86658 20.0051 0.000386281 0.000576928 0.000295829
106 1 -9.01436 -5.61962 20.0114 0.00424064 -0.00198112 0.000419703
107 1 -9.706 -4.36239 20.0094 0.00254654 0.00398927 0.000368986
108 1 -8.95289 -3.16284 20.0033 0.0128417 0.00637687 0.000303611
109 1 -9.58917 -1.91658 20.003 0.0120512 -0.00256877 0.000239145
110 1 -8.88732 -0.67446 19.9929 0.00835767 -0.00164178 3.58928e-05
123 1 -7.65081 -5.70007 20.0083 -0.00523061 -0.00686258 0.000772476
124 1 -7.59625 -3.11364 19.9792 0.00032299 0.00664292 -0.000522132
125 1 -7.50492 -0.69475 19.9561 -0.0051273 0.000334992 -0.000953079
134 1 -7.04962 -4.44125 19.9802 -0.0255254 0.00629826 -0.000544549
135 1 -7.05421 -1.94704 19.9532 -0.0323374 0.00183201 0.00204256
146 1 -4.91345 -5.64401 19.9558 -0.0404675 -0.0165865 0.000640713
147 1 -5.77063 -4.6437 19.904 0.0139543 -0.025446 -0.00605712
148 1 -5.26968 -3.46945 19.7847 -0.0578381 -0.0419148 -0.033873
149 1 -5.84299 -2.12979 19.8158 -0.0164152 0.0019575 -0.017537
150 1 -5.44295 -0.759535 19.8944 -0.00322674 -0.0146551 0.00626435
163 1 -3.54748 -5.98127 19.8616 -0.0191974 -0.00245529 -0.0104194
164 1 -3.93498 -3.90341 20.4889 -0.0149044 -0.0245967 0.0417915
165 1 -4.40882 -1.62978 20.4945 -0.0612894 -0.0515407 0.0197996
174 1 -3.08741 -4.72156 19.8089 -0.00138886 -0.0189225 -0.0139864
175 1 -4.37381 -3.10424 20.5585 -0.0466819 -0.0404603 0.0595188
186 1 -0.513241 -5.8657 19.8194 0.00491071 -0.0416328 -0.0176795
187 1 -1.6797 -5.05087 20.1813 -0.0330565 -0.0215906 0.0226425
188 1 -0.804545 -4.59516 20.2423 -0.00345304 -0.0475655 0.0186269
189 1 -1.51737 -1.20324 21.207 0.0113433 0.021882 0.090772
190 1 -0.664694 -0.867186 20.1498 -0.0459622 -0.0723094 -0.0486981
203 1 0.97595 -5.7954 19.8787 0.0152538 -0.0278731 -0.00626271
204 1 1.33156 -4.54262 20.3366 0.0229228 -0.0738085 0.0114939
205 1 0.461588 -0.655952 20.1529 -0.0206471 -0.0686136 -0.0139633
214 1 2.16027 -5.11032 20.7671 0.0297037 -0.0181755 0.0812529
215 1 0.739986 -0.623491 20.7254 -0.0113784 0.0765076 0.023165
226 1 4.18925 -5.99382 19.8739 0.00848158 -0.0552408 -0.0128361
227 1 3.47303 -4.74563 19.8805 0.0249171 -0.0392493 0.000383305
228 1 4.41664 -3.94263 20.7605 0.0292728 -0.0593899 0.0379982
229 1 4.17082 -3.18751 20.3786 0.0531831 -0.0443972 0.019322
230 1 5.01874 -0.978566 20.4979 0.019239 -0.0145237 0.0395148
243 1 5.38305 -5.66441 19.9762 0.0509179 -0.0157684 0.00126349
244 1 5.95525 -3.15375 19.9012 0.0034357 -0.00299891 0.00412473
245 1 6.19366 -0.699543 20.2867 0.044818 -0.0129999 0.0223159
254 1 6.2138 -4.44837 19.9324 0.0247175 -0.0190364 -0.00698426
255 1 6.62348 -2.10974 19.8637 0.0331242 -0.0295981 -0.0142085
216 1 1.01381 -1.23037 22.0944 0.0461804 -0.0623932 0.19449
267 1 7.70357 -4.33553 19.9923 0.0399491 -0.0185906 9.93165e-05
269 1 7.84559 -1.87139 19.9771 0.0702691 0.000865027 0.000433361
266 1 8.26954 -5.43965 20.0079 -0.00208973 0.00267043 -8.12308e-05
268 1 8.32466 -3.11305 19.9902 0.00478946 -0.0128844 -0.000846281
270 1 8.35521 -0.660519 19.9851 0.0119303 0.0142297 -0.000661447
283 1 9.71234 -5.52341 20.0094 -0.0045551 0.00260855 7.1273e-05
284 1 9.73859 -3.09959 20.0034 -0.00372707 0.000742102 -0.000190054
285 1 9.78308 -0.615608 19.9994 0.00863645 0.000220626 -0.000251163
294 1 10.4971 -4.32687 20.0055 0.00194263 -0.00221769 -2.60535e-05
295 1 10.4796 -1.88576 20.0016 -0.0016171 0.000618115 -0.000183021
306 1 12.6496 -5.55341 19.9999 0 0 0
307 1 11.9041 -4.32686 19.9999 0 0 0
308 1 12.647 -3.09734 19.9999 0 0 0
309 1 11.9037 -1.86828 19.9999 0 0 0
310 1 12.6457 -0.637745 19.9999 0 0 0
323 1 14.0539 -5.56516 19.9999 0 0 0
324 1 14.0472 -3.10129 19.9999 0 0 0
325 1 14.0438 -0.638188 19.9999 0 0 0
71 1 -13.6826 0.591886 19.9999 0 0 0
72 1 -13.0424 1.82079 19.9999 0 0 0
73 1 -13.6895 3.04359 19.9999 0 0 0
74 1 -13.0413 4.27397 19.9999 0 0 0
75 1 -13.7195 5.48914 19.9999 0 0 0
86 1 -11.5623 1.82169 19.9999 0 0 0
87 1 -11.5564 4.27485 19.9999 0 0 0
96 1 -10.9377 0.591923 20.0049 -0.000438057 -0.00583126 0.000244562
97 1 -10.9696 3.07722 20.0043 6.52468e-05 0.00518039 0.000206612
98 1 -10.9873 5.46874 20.0033 0.00428185 -0.00218071 0.000135881
111 1 -9.54149 0.597583 19.9993 0.0122919 -0.00382614 0.000130287
112 1 -8.89812 1.85077 19.9954 0.0104448 -0.00778152 7.20007e-05
113 1 -9.57299 3.12617 20.0048 0.0125464 -0.00671115 0.000216633
114 1 -8.92119 4.39835 20.0061 -0.00217887 -0.00068231 0.000256887
115 1 -9.58721 5.59882 20.0095 0.0127903 0.00568175 0.000290492
126 1 -7.54768 1.8683 19.9655 0.000282489 0.00092686 -0.000881695
127 1 -7.57227 4.38495 19.9903 -0.013229 0.0113852 -0.000171364
136 1 -6.95314 0.592975 19.9175 -0.0239353 -0.00460314 -0.00357286
137 1 -7.07949 3.16941 19.9667 -0.0186404 0.0121894 0.000291409
138 1 -6.84731 5.56935 19.9953 -0.00742981 -0.00521555 -3.67788e-05
151 1 -5.75527 0.52489 19.8616 -0.0181294 -0.00241722 -0.00337088
152 1 -5.41373 1.88547 20.21 -0.0122389 -0.0152428 0.0136727
153 1 -5.7468 3.44285 19.8486 -0.0189992 0.0348562 -0.0144272
154 1 -4.94047 4.51108 19.8518 -0.0194291 0.00467261 -0.0150683
155 1 -5.47438 5.73048 19.9784 -0.0479482 0.0623186 0.00580131
166 1 -4.36547 2.40323 20.4238 0.00247597 -0.0199705 0.047236
167 1 -3.67887 4.97563 19.6034 -0.0165856 0.036236 -0.0390726
176 1 -3.20871 1.92153 20.6772 -0.0195406 0.108188 0.0246725
177 1 -2.98696 4.56811 20.9172 0.015273 0.0612145 0.0747143
178 1 -2.74802 5.89619 19.7108 -0.00435874 -0.00306571 -0.0404168
191 1 -1.05292 1.23171 20.083 -0.0408868 0.101413 -0.012231
192 1 -1.59592 1.18896 20.843 -0.10304 0.00468394 0.0636648
193 1 -1.54167 4.33284 20.7355 0.0174027 0.0537556 0.0675773
194 1 -0.261169 5.09914 20.1834 0.00450939 -0.00186016 0.0228186
195 1 -1.48031 5.92899 19.8156 -0.0190458 0.0369231 -0.0144894
206 1 1.89885 0.995582 21.2051 0.0779062 -0.0304394 0.0827431
207 1 1.14464 4.64652 20.1606 0.0446784 -0.0411664 0.0193365
217 1 2.61278 3.79355 20.5107 0.0688112 0.0833552 0.0232304
218 1 1.77544 5.76751 19.9004 -0.00634132 0.0415828 -0.00326008
231 1 4.17465 2.15355 21.1025 0.0471757 0.0887634 0.074364
232 1 5.21119 2.50504 20.5044 0.0866215 0.0393415 0.036092
233 1 4.38131 3.56842 20.802 0.0165042 0.0608183 0.059775
234 1 4.25773 4.83552 19.7478 0.0176564 0.000460828 -0.00724917
235 1 3.22687 5.7873 19.9438 0.0111795 0.037715 -0.00270722
246 1 6.097 1.76423 19.7397 0.059843 0.0148669 -0.0345819
247 1 5.64393 4.44141 19.872 0.0391004 0.024944 -0.0159703
256 1 6.46895 0.583595 19.9347 0.0627243 -0.0338224 -0.000498298
257 1 6.32635 3.11115 19.8629 0.0347444 0.00960087 -0.0165671
258 1 6.06705 5.73705 20.0029 0.010955 0.0272969 0.00256564
273 1 7.55766 3.02717 19.9867 0.0486693 0.013426 0.0048923
275 1 7.45659 5.45534 20.0005 0.00311551 0.00233424 -2.76306e-05
271 1 7.71008 0.609198 19.9479 0.0489426 0.00677785 -0.00505994
272 1 8.23069 1.83239 19.9823 0.00912284 0.00412847 -0.00133555
274 1 8.17073 4.23816 19.9971 -0.00255806 -0.00214519 -0.000612348
286 1 9.66598 1.84601 20.0005 0.0106135 0.00253066 -0.000260587
287 1 9.62007 4.23399 20.006 -0.00774374 0.00184143 -0.000174324
296 1 10.4742 0.63137 20.0009 0.00753302 0.00842178 -0.000294377
297 1 10.4308 3.06192 20.0038 0.00955434 0.00526991 -0.000175036
298 1 10.4722 5.43343 20.0061 -0.00635442 -0.000334459 2.16266e-05
311 1 11.9034 0.592385 19.9999 0 0 0
312 1 12.6457 1.82255 19.9999 0 0 0
313 1 11.9038 3.05326 19.9999 0 0 0
314 1 12.6466 4.28301 19.9999 0 0 0
315 1 11.9041 5.51379 19.9999 0 0 0
326 1 14.0439 1.82305 19.9999 0 0 0
327 1 14.0468 4.28589 19.9999 0 0 0
76 1 -13.0678 6.73987 19.9999 0 0 0
77 1 -13.743 7.99662 19.9999 0 0 0
78 1 -13.076 9.22053 19.9999 0 0 0
79 1 -13.6781 10.6114 19.9999 0 0 0
80 1 -13.0646 11.9529 19.9999 0 0 0
88 1 -11.5395 6.7281 19.9999 0 0 0
89 1 -11.5535 9.18478 19.9999 0 0 0
90 1 -11.7099 11.6077 19.9999 0 0 0
99 1 -10.8944 7.95363 20.0018 0.00420029 -0.00542766 3.95692e-05
100 1 -10.9027 10.4758 19.9999 0 0 0
116 1 -8.86469 6.782 20.0112 0.00808403 0.00114132 0.000272111
117 1 -9.44469 8.03358 20.0075 0.00662434 0.00219534 0.000171827
118 1 -8.74117 9.25484 20.0048 0.0118215 -0.000516218 0.000103993
119 1 -9.37207 10.4804 19.9999 0 0 0
120 1 -8.62688 11.6228 19.9999 0 0 0
130 1 -7.38724 11.6024 19.9999 0 0 0
128 1 -7.47734 6.77183 20.0091 0.0127633 0.0015783 0.000220278
129 1 -7.3387 9.2474 20.0059 0.00796391 -0.00166188 9.81685e-05
139 1 -6.70793 7.9946 20.0087 0.0168425 -0.00433853 0.000100564
140 1 -6.60892 10.469 19.9999 0 0 0
156 1 -4.54614 6.79092 19.979 -0.000279792 0.00185988 -7.58226e-05
157 1 -5.26907 7.96615 20.0029 0.00661719 -0.00615634 0.000147335
158 1 -4.54175 9.20258 20.0033 0.000540835 0.00212716 9.05926e-05
159 1 -5.14663 10.4689 19.9999 0 0 0
160 1 -4.36691 11.6023 19.9999 0 0 0
168 1 -3.30629 7.01343 19.9997 -0.0327118 0.0794711 0.0128465
169 1 -3.14489 9.22311 19.9996 0.00724667 -0.00874152 4.61659e-05
170 1 -3.12269 11.6018 19.9999 0 0 0
179 1 -2.4616 8.01423 19.9838 0.00338213 0.00622838 -0.000144847
180 1 -2.34103 10.4689 19.9999 0 0 0
196 1 -0.34899 6.93059 19.9287 0.00312028 0.0276164 -0.00365448
197 1 -1.08945 8.01731 19.9801 -0.00934507 0.0153099 0.000599424
198 1 -0.252527 9.14789 19.9928 -0.00194828 0.00699438 -0.000176194
199 1 -0.876963 10.4688 19.9999 0 0 0
200 1 -0.0953724 11.6018 19.9999 0 0 0
208 1 1.00053 6.95687 19.9189 -0.00416712 0.0309949 -0.00651702
209 1 1.16837 9.23053 19.9932 0.00303676 0.00767014 -0.000177906
210 1 1.14924 11.6018 19.9999 0 0 0
219 1 1.75815 7.96195 19.9762 0.00223709 0.0135583 -0.000829217
220 1 1.93091 10.4688 19.9999 0 0 0
236 1 3.85432 6.96627 19.9773 -0.000797473 0.0371979 0.000114279
237 1 3.17404 8.03499 19.9879 -0.0141506 0.0161919 -0.000241704
238 1 4.00161 9.18031 19.9988 -0.0143156 0.0005683 -0.000226666
239 1 3.39506 10.4687 19.9999 0 0 0
240 1 4.17656 11.6018 19.9999 0 0 0
248 1 5.23019 6.83338 19.9913 -0.00229517 0.0215413 -3.47013e-05
249 1 5.42659 9.2144 20.0024 -0.0119493 0.00616986 -0.000182658
250 1 5.4212 11.6017 19.9999 0 0 0
259 1 6.06138 7.94974 20.0049 -0.00444451 0.00608528 -7.05725e-05
260 1 6.20335 10.4685 19.9999 0 0 0
277 1 7.54055 7.86622 20.0093 0.00114191 0.000208707 3.85571e-05
276 1 8.22534 6.63188 20.0099 -0.000114183 -0.00393695 3.00247e-05
278 1 8.3173 9.09209 20.0059 0.00387509 0.00200513 7.87503e-05
279 1 7.66711 10.4687 19.9999 0 0 0
280 1 8.44529 11.6024 19.9999 0 0 0
288 1 9.68197 6.61187 20.0087 -0.00605329 -0.00287081 6.17311e-05
289 1 9.74755 9.13293 20.0037 0.006472 -0.00132746 8.12171e-05
290 1 9.6873 11.6101 19.9999 0 0 0
299 1 10.4336 7.88355 20.0047 -0.00217228 -0.00765462 0.000101827
300 1 10.4752 10.4755 19.9999 0 0 0
316 1 12.6473 6.74288 19.9999 0 0 0
317 1 11.9051 7.97805 19.9999 0 0 0
318 1 12.6583 9.19198 19.9999 0 0 0
319 1 11.9246 10.4937 19.9999 0 0 0
320 1 12.7709 11.5297 19.9999 0 0 0
328 1 14.0456 6.75188 19.9999 0 0 0
329 1 14.0237 9.17042 19.9999 0 0 0
330 1 13.9415 11.792 19.9999 0 0 0
8 1 -0.773426 -2.42376 23.6627 -0.0446265 -0.134722 0.438219
27 1 -2.11441 -0.185159 23.7939 -0.101776 -0.00346554 0.470276
28 1 -1.57783 -2.24017 24.686 -0.0356704 0.00040389 0.454808
42 1 -3.34421 -0.0330583 24.2566 -0.052267 0.00400702 0.438578
44 1 -2.45556 -1.50158 25.1691 -0.0169461 0.0516002 0.489132
52 1 -1.08935 -3.05995 25.5206 -0.0393644 -0.0197958 0.502429
20 1 -2.98906 -1.1285 26.3416 0.0511409 -0.032156 0.493834
36 1 -1.05641 -3.35811 26.9539 0.00230833 0.00961829 0.47957
4 1 -3.86096 -0.429212 27.4444 -0.0224435 -0.00886216 0.526339
60 1 -2.17747 -2.26285 27.1137 0.0244048 0.0414624 0.457499
58 1 -1.98095 -2.15373 28.2673 -0.0104646 -0.00119638 0.478395
7 1 0.318266 -2.05556 23.6595 -0.0135186 -0.0973735 0.438586
26 1 1.49442 -2.41784 24.7629 0.0300491 -0.00746014 0.479599
38 1 2.84458 -0.406805 24.5115 0.0186549 -0.00555603 0.460355
40 1 2.80364 -1.62249 25.0898 0.0256332 -0.0259547 0.457372
50 1 0.412627 -2.36615 25.5589 0.0384716 0.0280477 0.550492
16 1 3.49 -1.68109 26.3048 -0.0522583 0.0169924 0.475335
35 1 1.39037 -3.06213 26.3362 -0.0113701 0.0599187 0.427355
2 1 2.67467 -0.638952 26.9788 -0.0203704 -0.0278766 0.493341
59 1 2.02024 -2.14992 27.0832 -0.00148923 0.0297682 0.48778
12 1 0.164446 -3.14 27.5152 -0.0175294 -0.0101544 0.459671
57 1 1.39795 -1.53022 28.3346 -0.00769149 -0.0211436 0.498096
51 1 -0.456208 1.40169 23.7517 0.00314666 0.0294631 0.464971
10 1 -0.0972491 2.57677 25.0223 -0.0044524 -0.015753 0.493629
32 1 -1.30048 2.43787 24.5015 -0.0177201 -0.00310469 0.449518
18 1 -3.20884 0.649462 25.4376 -0.0121048 -0.00964921 0.481668
56 1 -2.3122 1.63241 24.909 0.00686912 0.00673099 0.456149
9 1 -0.0017991 3.40668 26.0104 0.00901131 2.47156e-05 0.465518
3 1 -3.66319 0.842351 26.6622 0.0219247 0.0400369 0.503828
54 1 -2.2848 2.40931 26.4155 0.016327 -0.0945837 0.456346
30 1 -1.28089 3.1005 26.9273 -0.0205441 -0.00475272 0.477933
17 1 -2.26281 1.13188 27.4362 0.0109626 -0.000561412 0.477151
47 1 -1.13744 3.54448 28.3205 -0.0355348 0.00896073 0.54397
25 1 1.96692 0.348987 23.7189 0.0463586 0.0653713 0.438905
49 1 0.978371 1.50248 23.6495 0.0104003 0.0191806 0.423731
31 1 1.00837 2.38605 24.5013 0.0117364 0.0432632 0.483637
55 1 1.96389 2.07862 25.5469 0.0218036 0.00855303 0.568022
14 1 2.74923 0.836376 25.4352 -0.0166225 0.0260013 0.491285
1 1 3.61372 0.474395 26.5495 -0.0383618 0.0289474 0.485569
53 1 2.33464 2.93723 26.4867 -0.00956208 -0.0224501 0.476509
29 1 1.11262 3.75003 26.9091 0.0145175 0.0307071 0.457193
13 1 3.16267 1.61235 27.3961 0.0264338 -0.0234599 0.496988
45 1 0.551026 3.96079 28.1112 -0.035009 0.0573763 0.486803
19 1 -3.27168 -1.09964 28.4412 -0.00264224 0.0039801 0.484404
34 1 -1.08064 -2.88374 29.3391 0.0139503 -0.0312448 0.506853
48 1 -0.491644 -1.80779 30.2534 -0.00568106 -0.0300451 0.481378
24 1 -1.74159 -0.401742 30.1763 -0.00817555 -0.0442078 0.501303
43 1 -2.84564 -0.147415 29.5095 0.0150632 -0.012867 0.509874
11 1 0.354826 -3.35228 28.9155 -0.018224 -0.0283951 0.533845
15 1 2.6885 -0.770641 28.5206 -0.0460141 0.0214561 0.478476
33 1 1.35004 -2.37315 29.6658 -0.00637791 0.01753 0.484121
46 1 0.715081 -1.5991 30.2769 0.0242372 0.0315069 0.523174
41 1 -2.60397 1.41382 28.7865 -0.0198288 -0.0269352 0.513539
23 1 -2.0002 2.44214 29.2842 -0.00488023 0.023326 0.466747
6 1 -0.635783 1.88662 30.0132 0.0614568 0.0384863 0.515962
37 1 3.75071 1.4487 28.7174 0.0190316 -0.0295931 0.459824
21 1 0.224223 2.92192 29.4568 -0.0491117 0.0147006 0.53688
39 1 2.52366 0.329506 29.2454 -0.00972138 0.0419787 0.518216
22 1 1.33074 0.0741981 29.8321 0.0161604 0.0110325 0.469233
5 1 0.43703 1.49958 29.7168 -0.0409873 -0.012982 0.488148
