ITEM: TIMESTEP
47200
ITEM: NUMBER OF ATOMS
330
ITEM: BOX BOUNDS pp pp pp
-1.4715758017245314e+01 1.5057610017245315e+01
-1.2710055654020760e+01 1.2664508654020761e+01
-5.0001035148846022e+01 1.0000103514884636e+02
ITEM: ATOMS id type x y z vx vy vz
61 1 -13.6674 -11.9461 19.9999 0 0 0
62 1 -13.1228 -10.6724 19.9999 0 0 0
63 1 -13.7825 -9.34696 19.9999 0 0 0
64 1 -13.0772 -8.00396 19.9999 0 0 0
65 1 -13.7542 -6.79742 19.9999 0 0 0
81 1 -11.507 -10.5408 19.9999 0 0 0
82 1 -11.5331 -8.01671 19.9999 0 0 0
91 1 -10.7591 -11.6424 19.9999 0 0 0
92 1 -10.7921 -9.22152 19.9907 0.0168476 0.00836383 -0.000883478
93 1 -10.7942 -6.78658 19.9804 -0.0111369 -0.00335919 -6.64891e-05
101 1 -9.52473 -11.6468 19.9999 0 0 0
102 1 -8.74136 -10.5124 19.9999 0 0 0
103 1 -9.3848 -9.23964 19.9728 0.021052 0.0188787 -0.000386524
104 1 -8.71947 -7.93799 20.0628 0.0305027 0.00442172 0.0042988
105 1 -9.44926 -6.74262 20.0882 0.0111515 0.00651062 0.00433652
121 1 -7.27873 -10.5146 19.9999 0 0 0
122 1 -7.3498 -7.90083 20.2007 0.0382657 0.0168383 0.00671233
131 1 -6.50232 -11.6488 19.9999 0 0 0
132 1 -6.48893 -9.08908 20.0404 0.0414242 0.000777126 0.0113695
133 1 -6.73831 -6.60868 20.2245 0.0102209 0.00343717 -0.0140065
141 1 -5.25854 -11.6473 19.9999 0 0 0
142 1 -4.47674 -10.5145 19.9999 0 0 0
143 1 -5.07439 -8.97795 20.158 0.0204557 0.0239106 -0.0047631
144 1 -4.33149 -7.6319 20.0204 0.0234964 0.00127789 -0.0235551
145 1 -5.28888 -6.64695 19.5951 0.0199351 0.0207522 -0.0196504
161 1 -3.01281 -10.5144 19.9999 0 0 0
162 1 -2.79587 -7.92981 19.7426 0.0195501 0.00157151 -0.00850697
171 1 -2.23133 -11.6474 19.9999 0 0 0
172 1 -2.13184 -9.17637 20.1999 0.0195526 -0.00938836 -0.00769944
173 1 -2.08158 -6.7052 19.4068 0.0160088 -0.00211857 0.0084016
181 1 -0.986751 -11.6474 19.9999 0 0 0
182 1 -0.205108 -10.5143 19.9999 0 0 0
183 1 -0.71499 -9.04666 19.9739 0.0342783 0.0164616 -0.037017
184 1 0.141039 -8.01156 19.2469 0.0246529 -0.0097098 -0.0141687
185 1 -0.394914 -6.56538 19.416 0.0261828 0.0232814 0.0423835
201 1 1.25901 -10.5143 19.9999 0 0 0
202 1 1.66521 -7.91443 19.2481 -0.0127386 0.0100382 -0.0076808
211 1 2.0406 -11.6474 19.9999 0 0 0
212 1 2.03918 -9.14928 19.899 -0.0079095 0.0122154 -0.0275401
213 1 2.30731 -6.62064 19.6904 -0.025421 0.00236612 0.0301881
221 1 3.28523 -11.6473 19.9999 0 0 0
222 1 4.06705 -10.5143 19.9999 0 0 0
223 1 3.45158 -8.99079 20.1299 -0.0290216 -0.00613582 -0.0194761
224 1 4.2404 -7.87489 19.6586 -0.0163999 0.00655578 -0.0011181
225 1 3.84577 -6.44685 19.2622 0.0229231 0.0200187 -0.00172138
241 1 5.53108 -10.5143 19.9999 0 0 0
242 1 5.66432 -7.81083 19.9657 -0.00475013 -0.00222147 -0.0266197
251 1 6.31174 -11.6474 19.9999 0 0 0
252 1 6.25177 -9.11002 20.1804 -0.028671 0.0250724 -0.004099
253 1 6.65846 -6.7818 19.4461 -0.0172531 -0.0179979 -0.00400688
261 1 7.55524 -11.6498 19.9999 0 0 0
203 1 1.92995 -6.46166 21.1286 0.0164843 -0.0154883 0.0320764
265 1 7.94706 -6.87295 20.0007 -0.0259164 0.0119589 -0.0109405
263 1 7.61168 -9.24198 20.0635 -0.0198493 0.00271373 0.0092365
262 1 8.33779 -10.5154 19.9999 0 0 0
264 1 8.53296 -8.12952 20.1983 -0.0137373 0.00682624 0.00823576
281 1 9.79556 -10.5245 19.9999 0 0 0
282 1 9.87535 -8.1187 20.0723 -0.00639454 0.0217194 0.00487018
291 1 10.5816 -11.6418 19.9999 0 0 0
292 1 10.497 -9.29923 19.9691 0.00445038 0.015555 -0.00193734
293 1 10.6582 -6.96465 20.0957 0.00489864 0.028754 0.00623361
301 1 11.8019 -11.7522 19.9999 0 0 0
302 1 12.7161 -10.5156 19.9999 0 0 0
303 1 11.8934 -9.22642 19.9999 0 0 0
304 1 12.655 -8.00627 19.9999 0 0 0
305 1 11.8992 -6.77596 19.9999 0 0 0
321 1 14.087 -10.4984 19.9999 0 0 0
322 1 14.0714 -8.01298 19.9999 0 0 0
66 1 -13.0658 -5.54976 19.9999 0 0 0
67 1 -13.7179 -4.30197 19.9999 0 0 0
68 1 -13.0406 -3.0891 19.9999 0 0 0
69 1 -13.6883 -1.86008 19.9999 0 0 0
70 1 -13.0424 -0.636745 19.9999 0 0 0
83 1 -11.5387 -5.54743 19.9999 0 0 0
84 1 -11.5566 -3.09089 19.9999 0 0 0
85 1 -11.5625 -0.637245 19.9999 0 0 0
94 1 -10.8021 -4.33905 20.0385 -0.00621171 -0.00379426 0.00506481
95 1 -10.7828 -1.89736 20.0753 -0.0174818 0.00911334 0.00201848
106 1 -8.64599 -5.65111 20.3014 0.00194426 0.0190666 0.00951863
107 1 -9.33757 -4.44855 20.243 -0.00925176 0.0136505 0.00688176
108 1 -8.48016 -3.2632 20.2022 0.0142942 0.0181214 0.00617284
109 1 -9.20046 -2.03389 20.174 0.00282908 0.00675428 0.00225337
110 1 -8.5483 -0.732675 19.9524 0.020277 0.0125666 -0.00245172
123 1 -7.31991 -5.41375 20.2403 0.0150713 0.0279301 -0.00473427
124 1 -7.29235 -3.33559 19.5506 0.0217359 -0.00518527 -0.0282314
125 1 -7.24451 -0.661746 19.3659 0.00626106 -0.00746877 -0.0388943
134 1 -6.60317 -4.46164 19.5606 0.00225827 0.0123088 -0.0273052
135 1 -7.011 -1.99181 19.0927 0.0183511 0.0210479 -0.012452
146 1 -4.49686 -5.67239 18.9106 -0.0210764 0.00484068 0.00639245
147 1 -5.33226 -4.43945 18.7935 0.0311901 0.0342714 -0.00167066
148 1 -4.76819 -3.06072 18.6342 0.0159829 -0.0016147 0.0180105
149 1 -5.56261 -2.14127 19.3207 -0.00464469 0.000575865 -0.00366156
150 1 -5.56031 -1.45791 20.8838 0.0222232 -0.0337196 0.0193317
163 1 -3.34518 -5.91965 19.5301 -0.03717 -0.00126321 -0.0200011
164 1 -4.52767 -4.5241 21.865 -0.0326401 0.010094 0.0250503
165 1 -5.43285 -2.0089 21.808 0.0219758 -0.0137617 0.00172787
174 1 -3.16734 -4.49536 21.8905 0.0303455 0.0341188 0.0358573
187 1 -2.04172 -4.26194 20.6279 6.74438e-05 0.0396601 0.0182809
188 1 -0.463194 -5.05872 21.023 0.027673 0.0117369 0.013625
190 1 -2.55915 -3.32547 21.8208 -0.0201868 -0.0528987 0.0177953
205 1 -2.61719 -5.06386 19.1268 -0.0394505 -0.0438582 0.0199922
186 1 0.375244 -6.13406 20.8808 0.00287591 0.0222629 0.018356
226 1 4.81972 -5.70285 19.709 -0.00424786 0.0114821 0.0188292
227 1 4.82913 -5.92197 21.4021 0.00986552 -0.0343312 0.0385112
229 1 5.16772 -4.31991 21.2098 -0.00660975 -0.0230938 0.0399739
230 1 6.83019 -0.546365 21.7935 0.0163276 0.00574823 0.00759678
243 1 6.04074 -5.7779 19.0121 -0.0165594 -0.00896114 -0.0206435
244 1 6.24043 -3.77913 20.3492 -0.0302649 0.00515998 0.0288162
245 1 5.82497 -0.982325 20.9771 -0.00739674 0.0263602 0.0439386
254 1 6.52017 -4.59422 19.1643 -0.0271074 0.0377301 -0.00846195
255 1 6.0802 -2.16831 20.0589 -0.0107907 0.0125248 -0.0178701
269 1 7.46394 -2.13824 19.7038 -0.00551072 -0.00519311 -0.0116209
267 1 7.75977 -4.58457 19.1546 0.0274477 0.0355075 -0.0114581
266 1 8.54768 -5.66916 19.9978 -0.0125901 0.0513703 -0.0191799
268 1 8.40374 -3.34187 19.5221 0.0159936 0.0190182 -0.00208611
270 1 8.15475 -0.685066 19.6377 -0.00612597 7.5159e-05 0.00163132
283 1 9.99622 -5.78679 20.2541 -0.012413 0.0260778 0.00708582
284 1 9.76709 -3.30627 20.0026 0.00713832 0.0223091 -0.0132053
285 1 9.62315 -0.670638 19.8793 -0.00387014 -0.0159295 -0.0103982
294 1 10.5501 -4.45692 20.1443 -0.00704459 0.0357403 0.00289045
295 1 10.4949 -1.81843 20.1161 0.00637682 0.0252318 -0.0107884
306 1 12.6496 -5.55341 19.9999 0 0 0
307 1 11.9041 -4.32686 19.9999 0 0 0
308 1 12.647 -3.09734 19.9999 0 0 0
309 1 11.9037 -1.86828 19.9999 0 0 0
310 1 12.6457 -0.637745 19.9999 0 0 0
323 1 14.0539 -5.56516 19.9999 0 0 0
324 1 14.0472 -3.10129 19.9999 0 0 0
325 1 14.0438 -0.638188 19.9999 0 0 0
71 1 -13.6826 0.591886 19.9999 0 0 0
72 1 -13.0424 1.82079 19.9999 0 0 0
73 1 -13.6895 3.04359 19.9999 0 0 0
74 1 -13.0413 4.27397 19.9999 0 0 0
75 1 -13.7195 5.48914 19.9999 0 0 0
86 1 -11.5623 1.82169 19.9999 0 0 0
87 1 -11.5564 4.27485 19.9999 0 0 0
96 1 -10.742 0.576181 20.0734 -0.0100248 -0.000149562 0.00195297
97 1 -10.7255 3.01449 20.0537 -0.00323058 -0.0147083 0.000116334
98 1 -10.7319 5.54312 20.0319 -0.00196449 -0.00139351 0.000346986
111 1 -9.22591 0.638149 20.1349 0.00660844 -0.00254809 -0.00197754
112 1 -8.42876 1.85041 19.917 0.025935 -0.0167918 -0.00499884
113 1 -9.20031 3.07387 20.0567 -0.0034113 -0.00860075 -0.00159719
114 1 -8.57289 4.28228 20.0558 -0.00363891 -0.0387961 0.000233783
115 1 -9.24754 5.49751 20.077 -0.00883212 -0.0175297 -2.11127e-05
127 1 -7.141 4.12009 19.8223 0.037328 -0.0181003 -0.011244
126 1 -7.05603 1.84303 19.6674 0.023923 0.00233377 -0.00398291
136 1 -6.70285 0.558554 19.7958 0.015373 -0.0217286 -0.0106055
137 1 -6.27905 2.98628 19.6538 0.0139419 -0.0140317 0.0042131
138 1 -6.47387 5.17969 19.9111 0.00929488 -0.0352981 -0.0124686
151 1 -5.80707 -0.0185607 20.6469 -0.0226584 0.00142983 0.0215958
152 1 -4.28528 1.93494 20.0023 0.017786 0.00436524 0.0169822
153 1 -5.05313 2.88055 19.6026 -0.00219375 0.00039009 0.00713633
154 1 -4.38716 4.17756 18.9432 0.0187118 -0.00399287 -0.0139128
155 1 -5.09197 5.31613 19.5872 0.0200412 -0.0159142 -0.0231682
166 1 -5.19042 1.14412 21.1783 0.0150249 0.00867725 -0.0115347
167 1 -3.11924 4.2846 18.3438 0.00602948 -0.0340258 0.00185573
178 1 -2.52116 5.61152 18.2291 0.00479146 -0.00643021 -0.0189766
194 1 -2.53674 5.41736 20.6777 -0.0115738 0.0259038 -0.00985206
195 1 -1.61409 5.55566 19.4151 -0.0342914 -0.00870795 0.0135936
207 1 3.37024 6.09311 21.9668 0.0519707 0.0134198 0.0202885
217 1 4.10777 5.0916 21.272 -0.0136103 0.0115453 -0.0238359
218 1 2.68483 5.42309 19.5437 0.0118408 -0.0177826 -0.00336851
234 1 4.72308 4.57813 19.949 -0.00651697 -0.0077424 0.0506802
235 1 4.01804 5.47151 19.0521 0.00502974 -0.0195698 0.00487997
246 1 5.34677 2.01116 20.3974 -0.0466438 -0.00473376 0.0191157
247 1 6.12067 4.41396 19.7866 -0.0152309 -0.0134417 0.00373208
256 1 5.88836 0.503264 20.1833 -0.0330687 -0.00157175 -0.0107208
257 1 6.26965 3.13875 19.9003 -0.0181614 -0.0303314 0.0109003
258 1 6.67575 5.71656 19.4321 0.00311291 -0.0242701 -0.0063585
271 1 7.32871 0.460478 19.6404 -0.0199861 0.00170003 -0.00573176
208 1 1.56419 6.18396 19.5576 -0.00177261 -0.0261367 -0.00136117
273 1 7.60772 3.00932 19.4252 0.0045993 -0.0246764 0.00201901
275 1 7.88276 5.61805 19.6729 -0.0050968 -0.0459355 -0.0161629
272 1 8.21816 1.79629 19.4701 -0.0158137 -0.0223678 0.00192745
274 1 8.53957 4.35184 19.8017 0.0265793 -0.00922398 -0.0195564
286 1 9.79521 1.9528 19.92 -0.0339762 0.00169859 -0.0190888
287 1 9.85302 4.42062 20.1314 0.00900748 0.00219771 -0.00286732
296 1 10.4944 0.694755 20.129 0.0515914 -0.00915123 -0.0042933
297 1 10.5587 3.12679 20.0626 0.00663242 -0.015058 5.31469e-05
298 1 10.6589 5.46256 20.1027 -0.000117774 -0.0288435 0.00821465
311 1 11.9034 0.592385 19.9999 0 0 0
312 1 12.6457 1.82255 19.9999 0 0 0
313 1 11.9038 3.05326 19.9999 0 0 0
314 1 12.6466 4.28301 19.9999 0 0 0
315 1 11.9041 5.51379 19.9999 0 0 0
326 1 14.0439 1.82305 19.9999 0 0 0
327 1 14.0468 4.28589 19.9999 0 0 0
76 1 -13.0678 6.73987 19.9999 0 0 0
77 1 -13.743 7.99662 19.9999 0 0 0
78 1 -13.076 9.22053 19.9999 0 0 0
79 1 -13.6781 10.6114 19.9999 0 0 0
80 1 -13.0646 11.9529 19.9999 0 0 0
88 1 -11.5395 6.7281 19.9999 0 0 0
89 1 -11.5535 9.18478 19.9999 0 0 0
90 1 -11.7099 11.6077 19.9999 0 0 0
99 1 -10.7598 7.90378 19.9997 -0.00626091 0.0101798 -0.000499955
100 1 -10.9027 10.4758 19.9999 0 0 0
116 1 -8.6354 6.62786 20.0814 0.00109792 -0.0369891 0.00283882
117 1 -9.24567 7.95974 20.0057 0.0177452 0.00716085 0.000335691
118 1 -8.47308 9.10442 19.9831 0.00895612 0.0329052 -0.000423294
119 1 -9.37207 10.4804 19.9999 0 0 0
120 1 -8.62688 11.6228 19.9999 0 0 0
130 1 -7.38724 11.6024 19.9999 0 0 0
128 1 -7.22049 6.45501 20.2571 0.0491696 -0.0183489 0.00594078
129 1 -7.04021 8.92575 20.0406 0.0110301 0.0111548 0.00477563
139 1 -6.41684 7.70425 20.196 0.0146206 0.00152619 0.00862759
140 1 -6.60892 10.469 19.9999 0 0 0
156 1 -4.60373 6.62931 19.7298 0.0126362 -0.0101629 -0.0252204
157 1 -4.97325 7.92769 20.2086 0.0166951 0.0106529 0.00343145
158 1 -4.4377 9.2093 20.2641 -0.00235205 0.0153674 0.00707119
159 1 -5.14663 10.4689 19.9999 0 0 0
160 1 -4.36691 11.6023 19.9999 0 0 0
168 1 -3.10851 6.73321 19.3335 0.00689076 -0.0330485 -0.0255941
169 1 -2.84823 9.21504 20.1075 0.00438067 0.0180458 -0.00415994
170 1 -3.12269 11.6018 19.9999 0 0 0
179 1 -2.24053 7.88883 19.887 0.00287922 0.0143452 -0.0148977
180 1 -2.34103 10.4689 19.9999 0 0 0
196 1 -0.186658 6.37482 19.6578 0.0287061 0.0110841 0.00350677
197 1 -0.713844 7.81292 19.8529 -0.00385061 0.00606332 -0.00358525
198 1 0.0367413 9.14188 19.9118 0.0114578 0.0155935 -0.00551541
199 1 -0.876963 10.4688 19.9999 0 0 0
200 1 -0.0953724 11.6018 19.9999 0 0 0
209 1 1.46935 9.09513 19.9831 0.0156864 -0.0127164 -0.00343246
210 1 1.14924 11.6018 19.9999 0 0 0
219 1 1.97743 7.71627 19.8539 0.0106317 -0.0210806 -0.00826896
220 1 1.93091 10.4688 19.9999 0 0 0
236 1 4.55626 6.90556 19.1029 -0.00963524 -0.0284162 -0.00928372
237 1 3.62743 7.88603 19.7795 -0.00963024 -0.00908429 -0.0179628
238 1 4.04661 9.06793 20.1321 -0.00660143 -0.0136794 -0.00232541
239 1 3.39506 10.4687 19.9999 0 0 0
240 1 4.17656 11.6018 19.9999 0 0 0
248 1 6.02673 6.89081 19.4483 -0.00283889 -0.000903809 -0.0261511
249 1 5.56149 9.30326 20.2084 -0.00122517 0.00235561 0.0120065
250 1 5.4212 11.6017 19.9999 0 0 0
259 1 6.35557 8.10628 20.1307 -0.0325384 -0.00343558 -0.00419624
260 1 6.20335 10.4685 19.9999 0 0 0
277 1 7.83747 7.8936 20.1496 -0.0109098 -0.0127568 0.00918999
276 1 8.59971 6.69275 20.1006 0.0129201 -0.024765 0.00108957
278 1 8.41651 9.23002 20.0132 -0.00418058 -0.00354334 0.00302148
279 1 7.66711 10.4687 19.9999 0 0 0
280 1 8.44529 11.6024 19.9999 0 0 0
288 1 9.97454 6.52933 20.1069 -0.00991609 -0.0108768 0.00508633
289 1 9.78067 9.06939 19.9942 -0.00252427 -0.00462321 -0.000686117
290 1 9.6873 11.6101 19.9999 0 0 0
299 1 10.5569 7.81589 20.0148 0.00225054 -0.0263725 0.00199132
300 1 10.4752 10.4755 19.9999 0 0 0
316 1 12.6473 6.74288 19.9999 0 0 0
317 1 11.9051 7.97805 19.9999 0 0 0
318 1 12.6583 9.19198 19.9999 0 0 0
319 1 11.9246 10.4937 19.9999 0 0 0
320 1 12.7709 11.5297 19.9999 0 0 0
328 1 14.0456 6.75188 19.9999 0 0 0
329 1 14.0237 9.17042 19.9999 0 0 0
330 1 13.9415 11.792 19.9999 0 0 0
204 1 3.00666 -6.99037 22.2869 0.00603438 0.00679173 0.00974049
214 1 4.2859 -6.65951 22.5441 0.0202279 -0.00696046 0.0178677
228 1 2.73151 -6.58426 23.1313 -0.0312553 -0.0323175 -0.0217075
175 1 -5.14557 -2.78617 22.7451 0.0151051 0.00330504 0.0213812
189 1 -0.564102 -0.797998 22.521 0.0154103 0.00419547 0.0118502
176 1 -1.67498 5.2133 22.2307 -0.0474599 0.0509782 0.0555555
191 1 -2.47847 5.89438 22.9126 0.069475 0.0204239 0.048731
192 1 -6.43432 4.62982 24.6277 -0.0590723 0.0586063 0.061952
206 1 3.74988 2.14461 24.5499 0.125431 0.0247797 0.0993299
215 1 3.66086 0.742699 24.608 -0.047719 0.0148798 0.0164413
232 1 7.97271 3.30014 22.5005 0.0322347 0.0136373 0.0392786
193 1 -0.371717 7.39763 24.5059 0.0153746 0.0499471 0.0576076
177 1 -0.647506 7.81218 25.764 0.0424423 0.0535628 0.0839631
233 1 6.81795 6.4488 24.5071 0.0631562 0.115007 0.0519097
231 1 5.83673 7.06541 24.8026 0.00864157 0.00399021 0.0479243
216 1 3.78075 -5.08331 33.9962 0.0449149 -0.0625209 0.193083
8 1 -1.78679 -8.29743 50.5295 0.0228049 -0.108087 0.448564
7 1 -0.600776 -8.88969 50.8951 -0.051904 -0.0952334 0.432657
25 1 2.74064 2.0449 52.1868 0.00397021 0.0248016 0.504648
49 1 2.36647 3.49069 51.842 0.0264039 0.0218675 0.464657
51 1 1.10992 2.95243 51.8215 0.0144394 0.0289891 0.438404
28 1 -2.37725 -3.64582 54.3175 -0.0209525 -0.0265944 0.497658
44 1 -3.33995 -2.90149 54.2815 -0.0183995 -0.0578679 0.459526
42 1 -5.95986 -0.205886 54.2713 -0.0582208 -0.0169959 0.510984
52 1 -1.41074 -4.32888 55.1381 0.0256152 -0.0136618 0.457361
36 1 -0.646601 -2.72311 54.9228 -0.0336869 0.00506394 0.433761
50 1 -1.0103 -1.63788 55.8141 -0.0217456 -0.018676 0.46843
3 1 -4.89747 -0.443093 55.902 -0.0308097 -0.0275193 0.488747
20 1 -1.92372 -2.02937 56.4648 -0.026339 -0.0209047 0.465989
4 1 -3.49921 -1.05542 56.8853 0.00198854 -0.00393904 0.462607
60 1 -2.68314 -3.49994 57.0914 0.0102368 -0.005994 0.469766
12 1 -1.18491 -3.9141 57.5607 -0.0229614 -0.021749 0.519777
19 1 -2.8333 -1.1804 58.1875 -0.00723351 -0.0294647 0.48582
26 1 1.60757 -1.73798 54.0947 -0.0406985 0.0154555 0.474254
40 1 2.86722 -1.73906 54.4133 0.0257035 0.00773139 0.483171
35 1 0.589759 -2.06158 54.3106 0.0081139 0.00975479 0.444866
16 1 3.37124 -1.32119 55.5038 0.0164869 0.00203998 0.469686
59 1 3.25 -2.04799 57.026 0.0153738 0.0503612 0.50309
15 1 2.6341 -0.108957 57.7706 0.0230275 0.00415599 0.432688
57 1 2.59396 -1.92865 58.118 0.0227055 -0.0310691 0.474151
10 1 -1.78528 1.63185 52.518 -0.0407275 -0.0390301 0.499063
27 1 -7.11864 0.376457 54.3244 -0.0453692 0.040944 0.530838
32 1 -1.60008 1.47076 54.1211 0.0260445 0.0300463 0.494383
18 1 -5.10361 0.955767 55.7848 -0.0228421 -0.033779 0.488473
56 1 -1.63837 1.46511 55.4267 0.00309145 -0.023178 0.444717
9 1 0.00913293 4.04431 56.902 0.0128701 -0.00375634 0.510164
54 1 -1.70384 0.875114 56.7083 -0.0146404 0.0278025 0.479375
17 1 -2.40496 1.60017 57.2047 0.0584495 -0.0119441 0.479472
30 1 -1.33269 3.96581 57.612 0.00102864 0.0176771 0.503766
38 1 3.39861 1.33413 53.3983 0.0189191 -0.00404092 0.496704
31 1 2.43533 4.46123 53.1445 -0.0019508 0.0428486 0.467506
55 1 2.20657 3.24998 54.0148 0.0318029 0.0289264 0.47259
14 1 3.0802 2.27778 54.641 0.0339714 0.0546213 0.495761
1 1 3.02383 1.37253 56.1498 -0.0253331 -0.00107192 0.44618
2 1 2.75895 -0.0320336 56.3976 0.0185137 -0.0255607 0.498535
29 1 1.37096 2.98666 57.4429 -0.0234901 0.00164196 0.505355
13 1 3.19312 1.94806 57.4854 0.00476739 0.0167721 0.485144
58 1 -2.30341 -2.6585 58.7723 -0.0284084 -0.0271541 0.501387
11 1 -1.54581 -3.88242 58.9288 -0.0378878 -0.0193438 0.462552
34 1 -2.11857 -3.02805 59.912 -0.0195049 0.00445744 0.508831
43 1 -2.31309 -0.0500651 59.2792 0.0204728 0.0407828 0.511841
48 1 -1.36506 -1.83904 60.694 -0.0237747 -0.00646138 0.477367
24 1 -2.00827 -0.466776 60.7998 -0.0375489 0.0523949 0.446515
33 1 0.0835538 -1.52099 60.8131 -0.0147445 0.00492347 0.539038
46 1 0.304125 -0.00734231 60.8144 0.0106993 0.0413002 0.504115
41 1 -2.73719 1.49678 58.6331 -0.0223472 -0.000936014 0.518703
47 1 -1.6101 3.59838 59.1084 -0.00991069 -0.00373837 0.476943
23 1 -2.10569 2.40066 59.4639 0.0145261 0.0257578 0.487174
21 1 -1.06805 5.29107 59.9605 -0.025833 0.00520646 0.496883
5 1 -0.0439964 2.53569 61.7735 0.0423132 0.0530422 0.528287
53 1 2.05511 3.10338 58.753 0.00827171 0.00595476 0.511138
39 1 2.3811 0.480185 59.1887 -0.000352529 0.00110189 0.49579
37 1 3.17057 1.82875 59.3298 -0.0371526 0.0396975 0.44843
22 1 1.29544 0.446105 59.9926 -0.00899748 -0.0149605 0.458525
6 1 0.501365 1.41894 61.1758 -0.0189398 -0.0457824 0.522873
45 1 -1.58567 6.45632 59.8614 -0.0379922 0.0587171 0.518896
