ITEM: TIMESTEP
2000
ITEM: NUMBER OF ATOMS
330
ITEM: BOX BOUNDS pp pp pp
-1.4715758017245314e+01 1.5057610017245315e+01
-1.2710055654020760e+01 1.2664508654020761e+01
-5.0001035148846022e+01 1.0000103514884636e+02
ITEM: ATOMS id type x y z vx vy vz
8 1 -0.703424 -1.35994 6.72952 -0.000273488 -0.00108699 -0.000398789
20 1 -2.99255 -1.76508 9.44106 0.000621512 0.00155605 0.00047383
27 1 -1.4152 -0.118916 6.67993 0.00140751 -0.000403048 -0.000978825
28 1 -1.41474 -2.25088 7.58767 0.000727143 0.000731821 0.000218152
36 1 -1.15753 -3.34168 9.81467 -0.000537728 0.00101253 0.00129988
42 1 -2.57001 -0.254932 7.52433 0.00092002 0.000504973 0.000857273
44 1 -2.57245 -1.56208 8.07942 0.00298894 -0.000724862 0.000164211
52 1 -0.722428 -3.15902 8.46591 -0.000795116 0.00167917 -0.000185148
7 1 0.70245 -1.3599 6.72951 0.000277174 -0.00103136 -0.000410822
16 1 2.99173 -1.76456 9.44078 -0.000662197 0.0015869 0.000430588
25 1 1.41425 -0.119042 6.68008 -0.0014209 -0.000425352 -0.000969605
26 1 1.41373 -2.25082 7.58772 -0.000721845 0.000703449 0.000232555
35 1 1.15602 -3.342 9.81402 0.000534774 0.000966446 0.00120051
38 1 2.56896 -0.255108 7.5244 -0.000926259 0.000475306 0.000849055
40 1 2.57142 -1.56196 8.07947 -0.00293939 -0.000669316 0.00020015
50 1 0.721744 -3.15902 8.46606 0.000784756 0.00165238 -0.000208369
3 1 -3.41143 0.651642 9.67887 0.00278568 -0.00181396 -0.000105268
9 1 -0.000422604 3.45748 9.26701 1.56467e-05 -0.00267066 0.00179765
10 1 -0.000378261 2.92721 7.91709 2.45698e-05 -0.000593383 0.000306586
18 1 -2.99464 0.852784 8.32483 4.41815e-05 0.000601954 0.00094314
32 1 -1.15602 2.24151 7.42702 0.000542895 3.38606e-05 -0.000869661
51 1 -0.719462 1.14159 6.62727 0.000139545 -0.000450119 -0.000319914
54 1 -2.27909 2.65403 9.61362 0.000596539 0.00197996 0.000153932
56 1 -2.28332 2.11198 8.28525 -0.00277004 0.000686748 0.000273976
1 1 3.41047 0.65134 9.67894 -0.00279649 -0.0018095 -0.000122582
14 1 2.99353 0.852728 8.32489 -4.79711e-05 0.000597501 0.000962479
31 1 1.15533 2.24156 7.42726 -0.000527418 3.24358e-05 -0.000855278
49 1 0.718571 1.14154 6.62728 -0.000127456 -0.000470562 -0.000324394
53 1 2.27807 2.6542 9.61346 -0.000597852 0.00201124 0.000150656
55 1 2.28222 2.11161 8.28505 0.00276389 0.000654232 0.000264176
4 1 -3.41124 -0.643249 10.2361 0.00426803 0.000335859 0.00028204
11 1 -0.000298457 -2.89353 11.9786 -8.46695e-05 0.00192264 -0.000747463
12 1 -1.99551e-05 -3.47219 10.6465 -2.57125e-05 0.00216035 -0.000340235
19 1 -2.99214 -0.859558 11.5994 0.00165499 0.00124378 -0.000337218
34 1 -1.16158 -2.21895 12.4735 -0.00121562 -8.19052e-05 -0.000720037
48 1 -0.720487 -1.13499 13.2939 -0.00106563 -0.00144342 0.000178571
58 1 -2.29101 -2.11383 11.6367 -0.000147882 -0.00268271 0.00100291
60 1 -2.28565 -2.66382 10.3158 -0.00138822 -0.00174105 0.000916944
2 1 3.41015 -0.643247 10.2357 -0.00428274 0.000303367 0.000247115
15 1 2.99128 -0.858471 11.5998 -0.00173878 0.00144221 -0.000183385
33 1 1.16053 -2.21979 12.4732 0.0011522 0.000106326 -0.000476867
46 1 0.718469 -1.136 13.294 0.00122017 -0.00148686 5.67601e-05
57 1 2.29049 -2.11385 11.6372 0.000234776 -0.00265073 0.000994387
59 1 2.28451 -2.66426 10.3155 0.00145109 -0.00172541 0.000900556
6 1 -0.705709 1.35784 13.2045 0.00100642 0.000809191 2.65465e-05
17 1 -2.99647 1.76151 10.4845 0.00157837 0.00242789 -0.00111617
23 1 -1.4196 2.25614 12.3488 0.000898792 0.000398591 0.000403866
24 1 -1.42753 0.120406 13.256 0.000906113 -0.00133315 0.00119224
30 1 -1.15241 3.32422 10.1093 -0.00105221 -0.00198592 0.000640769
41 1 -2.57836 1.56118 11.8518 0.000141853 -0.00228409 6.63993e-05
43 1 -2.57933 0.249382 12.4108 0.000328506 0.00024108 -0.000452541
47 1 -0.721426 3.15415 11.4653 0.00024371 0.00137923 -0.00135257
5 1 0.702432 1.3583 13.2054 -0.00115298 0.000911467 4.51558e-05
13 1 2.99562 1.76116 10.4851 -0.00156273 0.0023557 -0.00102703
21 1 1.41923 2.25668 12.3485 -0.000756887 0.000274425 0.000494874
22 1 1.42831 0.120136 13.2556 -0.000818116 -0.00160731 0.00108595
29 1 1.15124 3.32434 10.1094 0.00104911 -0.00193162 0.000456859
37 1 2.57778 1.55971 11.8519 -0.000126706 -0.00258708 0.00014301
39 1 2.57865 0.250236 12.4096 -0.000351293 0.00039937 -0.000678501
45 1 0.720372 3.1546 11.4645 -0.000394673 0.00151192 -0.001353
61 1 -13.6674 -11.9461 19.9999 0 0 0
62 1 -13.1228 -10.6724 19.9999 0 0 0
63 1 -13.7825 -9.34696 19.9999 0 0 0
64 1 -13.0772 -8.00396 19.9999 0 0 0
65 1 -13.7542 -6.79742 19.9999 0 0 0
81 1 -11.507 -10.5408 19.9999 0 0 0
82 1 -11.5331 -8.01671 19.9999 0 0 0
91 1 -10.7591 -11.6424 19.9999 0 0 0
92 1 -10.8339 -9.23427 19.9999 0.000764437 0.000853763 -8.17348e-08
93 1 -10.8393 -6.77842 19.9999 -2.57856e-05 0.00138415 -2.22818e-08
101 1 -9.52473 -11.6468 19.9999 0 0 0
102 1 -8.74136 -10.5124 19.9999 0 0 0
103 1 -9.40642 -9.23704 19.9999 0.000375173 -0.000733734 -1.6364e-07
104 1 -8.69492 -8.01287 19.9999 -0.000639514 0.000612942 2.53197e-07
105 1 -9.39219 -6.77325 19.9999 -0.000370526 0.00161411 5.70431e-07
121 1 -7.27873 -10.5146 19.9999 0 0 0
122 1 -7.27134 -8.03911 20 -0.000412979 0.00238368 1.65818e-06
131 1 -6.50232 -11.6488 19.9999 0 0 0
132 1 -6.55941 -9.25881 19.9999 -0.000973089 0.00120962 7.15536e-07
133 1 -6.58258 -6.80086 20 0.00174165 0.00182049 4.36823e-06
141 1 -5.25854 -11.6473 19.9999 0 0 0
142 1 -4.47674 -10.5145 19.9999 0 0 0
143 1 -5.1491 -9.24042 20 -0.00035932 0.000814431 1.86438e-06
144 1 -4.43051 -8.01527 20 0.00262174 -0.0006099 4.29856e-06
145 1 -5.16273 -6.79418 20 0.00138108 -0.000813463 4.82241e-06
161 1 -3.01281 -10.5144 19.9999 0 0 0
162 1 -3.0033 -8.01311 20 0.00256776 -0.00125275 4.80806e-06
171 1 -2.23133 -11.6474 19.9999 0 0 0
172 1 -2.30681 -9.24839 20 0.00210652 -0.00121659 3.58809e-06
173 1 -2.28573 -6.77755 19.9999 -0.000861043 0.000750177 -4.48881e-06
181 1 -0.986751 -11.6474 19.9999 0 0 0
182 1 -0.205108 -10.5143 19.9999 0 0 0
183 1 -0.897086 -9.24482 20 0.00177111 -0.00081801 4.02577e-06
184 1 -0.17206 -8.02268 20 -0.000416684 0.000209502 2.90463e-06
185 1 -0.857454 -6.78004 19.9998 -0.000446795 0.000168455 -9.71167e-06
201 1 1.25901 -10.5143 19.9999 0 0 0
202 1 1.2575 -8.0089 20 -0.00161887 0.000803556 3.46537e-06
211 1 2.0406 -11.6474 19.9999 0 0 0
212 1 1.96222 -9.23614 20 -0.00225038 0.000371669 3.85247e-06
213 1 2.01411 -6.79556 19.9999 -0.000116896 -0.000354309 -5.40573e-06
221 1 3.28523 -11.6473 19.9999 0 0 0
222 1 4.06705 -10.5143 19.9999 0 0 0
223 1 3.37772 -9.23632 20 -0.00176501 0.000529135 3.19118e-06
224 1 4.13109 -8.02688 20 -0.000370375 7.55184e-05 5.23843e-06
225 1 3.4389 -6.786 20 -0.000330209 1.28498e-05 5.76825e-07
241 1 5.53108 -10.5143 19.9999 0 0 0
242 1 5.55814 -8.027 20 0.000888298 -0.000107465 3.59043e-06
251 1 6.31174 -11.6474 19.9999 0 0 0
252 1 6.25042 -9.25755 19.9999 0.00124756 -0.000157565 9.345e-07
253 1 6.27313 -6.79443 20 0.00297199 -0.000828607 5.34893e-06
261 1 7.55524 -11.6498 19.9999 0 0 0
262 1 8.33779 -10.5154 19.9999 0 0 0
263 1 7.65625 -9.24366 19.9999 0.00137086 0.000148617 1.35181e-07
264 1 8.37655 -8.02191 19.9999 0.00163858 3.93114e-05 5.15428e-07
265 1 7.68333 -6.78621 20 0.00283523 -6.95144e-06 2.83531e-06
281 1 9.79556 -10.5245 19.9999 0 0 0
282 1 9.78864 -8.01654 19.9999 0.000884269 -0.000305384 -1.17966e-07
291 1 10.5816 -11.6418 19.9999 0 0 0
292 1 10.4969 -9.24714 19.9999 -0.000194842 -0.000512538 -1.32684e-07
293 1 10.5039 -6.78498 19.9999 0.000741932 -0.000246096 -2.25352e-08
301 1 11.8019 -11.7522 19.9999 0 0 0
302 1 12.7161 -10.5156 19.9999 0 0 0
303 1 11.8934 -9.22642 19.9999 0 0 0
304 1 12.655 -8.00627 19.9999 0 0 0
305 1 11.8992 -6.77596 19.9999 0 0 0
321 1 14.087 -10.4984 19.9999 0 0 0
322 1 14.0714 -8.01298 19.9999 0 0 0
66 1 -13.0658 -5.54976 19.9999 0 0 0
67 1 -13.7179 -4.30197 19.9999 0 0 0
68 1 -13.0406 -3.0891 19.9999 0 0 0
69 1 -13.6883 -1.86008 19.9999 0 0 0
70 1 -13.0424 -0.636745 19.9999 0 0 0
83 1 -11.5387 -5.54743 19.9999 0 0 0
84 1 -11.5566 -3.09089 19.9999 0 0 0
85 1 -11.5625 -0.637245 19.9999 0 0 0
94 1 -10.8404 -4.31861 19.9999 0.00105544 -0.00349749 5.85069e-07
95 1 -10.8457 -1.85634 19.9999 0.00224096 0.00174258 1.29084e-06
106 1 -8.69353 -5.53787 20 0.000846301 0.00139554 2.75281e-06
107 1 -9.39786 -4.30352 20 0.00127396 0.000858828 2.71432e-06
108 1 -8.67894 -3.07649 20 0.00199564 0.000551695 4.82264e-06
109 1 -9.39852 -1.85062 20 0.00123339 -0.000638501 3.75018e-06
110 1 -8.66453 -0.631664 20 0.0028046 -0.00135432 4.36425e-06
123 1 -7.26997 -5.55878 20 0.0014669 0.000830527 5.17929e-06
124 1 -7.24617 -3.0725 20 0.00153546 0.00194084 2.36691e-06
125 1 -7.22761 -0.615473 19.9999 0.0025249 0.00102694 -4.57873e-06
134 1 -6.56637 -4.32197 20 -0.000851594 0.000700903 2.24656e-06
135 1 -6.51179 -1.84922 19.9998 0.00158863 0.000296772 -1.07179e-05
146 1 -4.43687 -5.56361 19.9999 -0.00227777 0.000771718 -5.96256e-06
147 1 -5.13699 -4.32487 19.9998 -0.00173934 0.00130963 -1.24387e-05
148 1 -4.37857 -3.11001 19.999 4.38965e-05 0.00074497 -5.23897e-05
149 1 -5.07988 -1.8704 19.999 0.001385 0.00110782 -4.90916e-05
150 1 -4.35349 -0.641778 19.9979 0.00447752 0.000274408 -9.6671e-05
163 1 -3.00018 -5.54864 19.9996 -0.00257018 0.000200882 -2.12797e-05
164 1 -2.9443 -3.10603 19.9978 -0.000168405 -0.000234328 -0.000102841
165 1 -2.92647 -0.638215 19.9959 0.00420178 -0.000440869 -0.000175372
174 1 -2.23653 -4.33861 19.9985 -0.00118875 -0.000923023 -7.24646e-05
175 1 -2.21405 -1.87403 19.9957 0.00165023 -0.00174403 -0.000178497
186 1 -0.103119 -5.56517 19.9991 0.000708699 -0.000224646 -4.52322e-05
187 1 -0.801949 -4.32794 19.9979 -0.000523071 -0.000772284 -9.73852e-05
188 1 -0.0687122 -3.09845 19.9959 0.00170147 -0.00109641 -0.000173072
189 1 -0.782506 -1.86339 19.9942 0.00155119 -0.000724987 -0.000228891
190 1 -0.0652026 -0.630637 19.9927 0.00240316 1.26366e-05 -0.000281125
203 1 1.32664 -5.55988 19.9992 0.00116153 -0.000144557 -4.0448e-05
204 1 1.35878 -3.09895 19.9962 0.00264949 -0.000776274 -0.000161866
205 1 1.36063 -0.634156 19.9933 0.00258546 1.26204e-05 -0.000266922
214 1 2.05551 -4.3347 19.9983 0.0025329 -0.000913649 -8.07504e-05
215 1 2.07333 -1.86676 19.9952 0.00247219 -0.000634633 -0.000202876
226 1 4.17302 -5.56129 19.9998 0.0016097 -0.000988833 -6.3954e-06
227 1 3.47502 -4.32604 19.999 0.00216966 -0.000769578 -4.6581e-05
228 1 4.19469 -3.09741 19.9987 0.00375654 -0.0011526 -5.96373e-05
229 1 3.49526 -1.8634 19.9971 0.00280575 -0.00103956 -0.000131494
230 1 4.20644 -0.632545 19.9975 0.00468116 -0.000502168 -0.000112952
243 1 5.59187 -5.55297 20 0.00274629 -0.000705977 3.65095e-06
244 1 5.6064 -3.09097 19.9996 0.00467944 -0.000289611 -1.62785e-05
245 1 5.61471 -0.63083 19.9991 0.00599617 -0.000309316 -3.91705e-05
254 1 6.29594 -4.32192 20 0.00454417 -0.000685176 3.19695e-06
255 1 6.30237 -1.8622 19.9997 0.0056578 -0.000542165 -1.23038e-05
266 1 8.39052 -5.55648 20 0.00229062 -0.000796448 3.53103e-06
267 1 7.70129 -4.32094 20 0.00417428 -0.000557534 6.0957e-06
268 1 8.40317 -3.09309 20 0.00346256 -0.000643757 5.55649e-06
269 1 7.70595 -1.86417 20 0.00495966 -0.000442109 4.67698e-06
270 1 8.40751 -0.637881 20 0.00387013 -0.000316176 4.73577e-06
283 1 9.79952 -5.5546 19.9999 0.00155142 -0.000751103 1.0421e-06
284 1 9.80903 -3.09554 20 0.00232642 -0.000692342 2.91354e-06
285 1 9.81135 -0.636217 20 0.00261206 0.000138409 3.74368e-06
294 1 10.5124 -4.32585 19.9999 0.000628908 -0.000900464 9.01814e-07
295 1 10.5138 -1.86638 20 0.00065259 -0.000396575 1.69555e-06
306 1 12.6496 -5.55341 19.9999 0 0 0
307 1 11.9041 -4.32686 19.9999 0 0 0
308 1 12.647 -3.09734 19.9999 0 0 0
309 1 11.9037 -1.86828 19.9999 0 0 0
310 1 12.6457 -0.637745 19.9999 0 0 0
323 1 14.0539 -5.56516 19.9999 0 0 0
324 1 14.0472 -3.10129 19.9999 0 0 0
325 1 14.0438 -0.638188 19.9999 0 0 0
71 1 -13.6826 0.591886 19.9999 0 0 0
72 1 -13.0424 1.82079 19.9999 0 0 0
73 1 -13.6895 3.04359 19.9999 0 0 0
74 1 -13.0413 4.27397 19.9999 0 0 0
75 1 -13.7195 5.48914 19.9999 0 0 0
86 1 -11.5623 1.82169 19.9999 0 0 0
87 1 -11.5564 4.27485 19.9999 0 0 0
96 1 -10.8369 0.579127 19.9999 0.00046055 0.0018697 1.34449e-06
97 1 -10.8438 3.05996 19.9999 -0.00142451 -0.00140958 9.82033e-07
98 1 -10.8434 5.49517 19.9999 0.000787238 -0.00163171 2.74001e-07
111 1 -9.38608 0.591865 20 0.00181525 -0.000548256 3.63087e-06
112 1 -8.65939 1.81192 20 0.00120375 0.000998545 4.53184e-06
113 1 -9.40009 3.02959 20 0.000226647 0.00111354 3.33011e-06
114 1 -8.69595 4.25848 20 0.000245587 0.000827222 3.994e-06
115 1 -9.40374 5.49282 20 0.0005299 0.000149965 1.70764e-06
126 1 -7.22686 1.81474 19.9999 0.00079931 -0.00226455 -2.08507e-06
127 1 -7.26758 4.24284 20 0.000545907 -0.00251015 4.20707e-06
136 1 -6.48276 0.6015 19.9997 0.00372318 -1.88577e-05 -1.57701e-05
137 1 -6.51096 3.03952 19.9999 8.68358e-05 -0.00145612 -4.26264e-06
138 1 -6.56988 5.48381 20 0.00117232 -0.00182491 4.44408e-06
151 1 -5.05225 0.600346 19.9987 0.00409412 0.00081567 -6.23052e-05
152 1 -4.34967 1.83828 19.9983 0.00357174 0.0015659 -7.93395e-05
153 1 -5.08339 3.05913 19.9994 -5.00376e-07 -9.12639e-05 -3.15749e-05
154 1 -4.39717 4.30118 19.9995 -8.61649e-05 -0.000557479 -2.75757e-05
155 1 -5.14514 5.51327 20 0.000811241 -0.000534439 -1.07189e-06
166 1 -2.9262 1.83339 19.9966 0.00336178 0.00155719 -0.000148393
167 1 -2.96891 4.29127 19.9988 -0.00124995 0.000610397 -5.94889e-05
176 1 -2.20961 0.598215 19.9947 0.00258423 0.000792229 -0.000211998
177 1 -2.2289 3.07063 19.9971 0.000325296 0.00261689 -0.000128467
178 1 -2.26376 5.51855 19.9994 -0.00161435 0.000315292 -3.07457e-05
191 1 -0.782254 0.600248 19.9931 0.00219224 0.000972345 -0.000268704
192 1 -0.0732922 1.83365 19.9939 0.00160938 0.00164369 -0.000239955
193 1 -0.800991 3.06005 19.996 -0.000354745 0.000885338 -0.000167586
194 1 -0.092365 4.29201 19.9977 4.34605e-05 1.98352e-05 -0.00010479
195 1 -0.837231 5.50913 19.9991 -0.00148557 -0.000308092 -4.38894e-05
206 1 1.35441 1.83305 19.9944 0.00113987 0.00119877 -0.000228141
207 1 1.3373 4.29947 19.9979 0.000482651 0.00078423 -9.6828e-05
216 1 2.07735 0.59974 19.9941 0.000947587 0.00121654 -0.000242614
217 1 2.0644 3.0697 19.9967 0.000561598 0.0010369 -0.000147452
218 1 2.03012 5.53771 19.9993 -0.000285738 0.00119159 -3.42338e-05
231 1 3.50443 0.601524 19.9964 0.00221547 0.00046403 -0.00016173
232 1 4.20715 1.83615 19.9979 0.00415759 0.00118858 -9.44466e-05
233 1 3.49194 3.06787 19.998 0.00118688 0.00136434 -9.30738e-05
234 1 4.19116 4.30648 19.9994 0.0023803 0.00177114 -3.04514e-05
235 1 3.45747 5.53456 19.9996 -0.000394099 0.00124726 -1.676e-05
246 1 5.61673 1.8315 19.9993 0.00540232 -0.000265865 -3.19544e-05
247 1 5.60832 4.29546 19.9998 0.00410268 0.000355789 -4.98247e-06
256 1 6.30651 0.598824 19.9996 0.00568689 -0.000167447 -1.90935e-05
257 1 6.30654 3.06254 19.9998 0.00498632 1.2542e-05 -5.25728e-06
258 1 6.29363 5.53058 20 0.00429978 0.000361602 5.67026e-06
271 1 7.70988 0.591011 20 0.00484031 -0.000362534 3.09052e-06
272 1 8.40804 1.82 20 0.00324907 -7.58428e-05 4.98774e-06
273 1 7.71126 3.05265 20 0.00431574 -7.77973e-05 5.36902e-06
274 1 8.40291 4.28673 20 0.00272338 0.000145761 4.88397e-06
275 1 7.70133 5.52033 20 0.00367095 -0.000103504 4.77772e-06
286 1 9.8121 1.82228 20 0.00206724 0.000395894 3.47441e-06
287 1 9.80888 4.2845 20 0.00159092 0.000237449 2.10172e-06
296 1 10.5152 0.592881 20 0.000904625 0.000516085 1.82417e-06
297 1 10.5139 3.05348 19.9999 0.000652965 0.000316098 1.41389e-06
298 1 10.5117 5.5168 19.9999 0.000363212 0.000277845 4.45881e-07
311 1 11.9034 0.592385 19.9999 0 0 0
312 1 12.6457 1.82255 19.9999 0 0 0
313 1 11.9038 3.05326 19.9999 0 0 0
314 1 12.6466 4.28301 19.9999 0 0 0
315 1 11.9041 5.51379 19.9999 0 0 0
326 1 14.0439 1.82305 19.9999 0 0 0
327 1 14.0468 4.28589 19.9999 0 0 0
76 1 -13.0678 6.73987 19.9999 0 0 0
77 1 -13.743 7.99662 19.9999 0 0 0
78 1 -13.076 9.22053 19.9999 0 0 0
79 1 -13.6781 10.6114 19.9999 0 0 0
80 1 -13.0646 11.9529 19.9999 0 0 0
88 1 -11.5395 6.7281 19.9999 0 0 0
89 1 -11.5535 9.18478 19.9999 0 0 0
90 1 -11.7099 11.6077 19.9999 0 0 0
99 1 -10.8457 7.95441 19.9999 -0.000601893 -0.000875215 -9.1133e-08
100 1 -10.9027 10.4758 19.9999 0 0 0
116 1 -8.68989 6.72016 19.9999 0.00321564 -0.000817599 1.41848e-06
117 1 -9.3979 7.94766 19.9999 0.0038268 -0.00248438 5.17437e-08
118 1 -8.70038 9.18102 19.9999 -0.000630226 3.24916e-05 -9.24219e-08
119 1 -9.37207 10.4804 19.9999 0 0 0
120 1 -8.62688 11.6228 19.9999 0 0 0
129 1 -7.28573 9.1842 19.9999 -0.000745119 0.00100804 3.90028e-07
130 1 -7.38724 11.6024 19.9999 0 0 0
128 1 -7.25825 6.72509 20 0.00335931 -0.00182386 3.58058e-06
139 1 -6.55209 7.96602 20 -0.00126289 0.000714274 2.3435e-06
140 1 -6.60892 10.469 19.9999 0 0 0
156 1 -4.4283 6.74141 20 2.75517e-05 -0.000244943 2.90575e-06
157 1 -5.125 7.9836 20 -0.000671731 -0.000645217 4.38489e-06
158 1 -4.42023 9.21189 20 0.000101105 -0.000642501 2.41509e-06
159 1 -5.14663 10.4689 19.9999 0 0 0
160 1 -4.36691 11.6023 19.9999 0 0 0
168 1 -3.00435 6.73591 19.9999 -0.000654725 -9.90991e-05 -1.51764e-06
169 1 -3.01528 9.19764 20 0.000480609 -0.00136502 3.65048e-06
170 1 -3.12269 11.6018 19.9999 0 0 0
179 1 -2.30278 7.97093 20 0.00158485 -0.0012379 3.98931e-06
180 1 -2.34103 10.4689 19.9999 0 0 0
196 1 -0.148927 6.74729 19.9998 -0.00104143 -0.000174313 -1.02642e-05
197 1 -0.883525 7.97067 20 0.0021871 0.00157233 3.75094e-06
198 1 -0.18584 9.20115 20 0.001662 0.00129871 4.24366e-06
199 1 -0.876963 10.4688 19.9999 0 0 0
200 1 -0.0953724 11.6018 19.9999 0 0 0
208 1 1.27917 6.75006 19.9998 -0.00135902 0.000683912 -8.35206e-06
209 1 1.2257 9.2012 20 0.000296455 0.00199054 4.22507e-06
210 1 1.14924 11.6018 19.9999 0 0 0
219 1 1.96703 7.99132 20 -0.00242971 0.00114043 4.50982e-06
220 1 1.93091 10.4688 19.9999 0 0 0
236 1 4.1583 6.7713 20 0.000184991 0.000742811 3.40776e-06
237 1 3.40246 7.98876 20 -0.00308281 -0.000535461 4.9046e-06
238 1 4.11839 9.2074 20 -0.0012362 -0.00149042 2.87476e-06
239 1 3.39506 10.4687 19.9999 0 0 0
240 1 4.17656 11.6018 19.9999 0 0 0
248 1 5.58399 6.76008 20 0.00209414 -0.000158019 5.18603e-06
249 1 5.53055 9.20249 19.9999 -0.000206031 -0.000834057 1.50069e-06
250 1 5.4212 11.6017 19.9999 0 0 0
259 1 6.26857 7.99523 20 0.00252773 8.67566e-05 3.13849e-06
260 1 6.20335 10.4685 19.9999 0 0 0
276 1 8.39288 6.7557 20 0.00199899 0.000148242 1.9227e-06
277 1 7.68273 7.98819 19.9999 0.00256254 0.000150795 1.14005e-06
278 1 8.3814 9.2134 19.9999 0.000680005 0.00063795 -3.60746e-08
279 1 7.66711 10.4687 19.9999 0 0 0
280 1 8.44529 11.6024 19.9999 0 0 0
288 1 9.80309 6.75061 19.9999 0.00124332 0.00014357 3.48536e-07
289 1 9.78468 9.20806 19.9999 0.00027858 -0.000222592 -1.66491e-07
290 1 9.6873 11.6101 19.9999 0 0 0
299 1 10.5048 7.98614 19.9999 0.000283963 2.38966e-05 -1.57202e-07
300 1 10.4752 10.4755 19.9999 0 0 0
316 1 12.6473 6.74288 19.9999 0 0 0
317 1 11.9051 7.97805 19.9999 0 0 0
318 1 12.6583 9.19198 19.9999 0 0 0
319 1 11.9246 10.4937 19.9999 0 0 0
320 1 12.7709 11.5297 19.9999 0 0 0
328 1 14.0456 6.75188 19.9999 0 0 0
329 1 14.0237 9.17042 19.9999 0 0 0
330 1 13.9415 11.792 19.9999 0 0 0
