ITEM: TIMESTEP
33000
ITEM: NUMBER OF ATOMS
330
ITEM: BOX BOUNDS pp pp pp
-1.4715758017245314e+01 1.5057610017245315e+01
-1.2710055654020760e+01 1.2664508654020761e+01
-5.0001035148846022e+01 1.0000103514884636e+02
ITEM: ATOMS id type x y z vx vy vz
61 1 -13.6674 -11.9461 19.9999 0 0 0
62 1 -13.1228 -10.6724 19.9999 0 0 0
63 1 -13.7825 -9.34696 19.9999 0 0 0
64 1 -13.0772 -8.00396 19.9999 0 0 0
65 1 -13.7542 -6.79742 19.9999 0 0 0
81 1 -11.507 -10.5408 19.9999 0 0 0
82 1 -11.5331 -8.01671 19.9999 0 0 0
91 1 -10.7591 -11.6424 19.9999 0 0 0
92 1 -10.9406 -9.2849 20.0006 -0.0084727 0.00106349 -1.55541e-05
93 1 -10.949 -6.79136 20.0007 -0.0033143 -0.00591583 -0.000515278
101 1 -9.52473 -11.6468 19.9999 0 0 0
102 1 -8.74136 -10.5124 19.9999 0 0 0
103 1 -9.55824 -9.42851 20.0012 -0.0158828 -0.0155134 -0.000430711
104 1 -8.95901 -8.24706 20.0107 -0.00725759 -0.000437193 -0.000321362
105 1 -9.59604 -6.98328 20.0138 -0.0164503 -0.00290355 -0.000392611
121 1 -7.27873 -10.5146 19.9999 0 0 0
122 1 -7.54795 -8.33314 20.0274 -0.0164154 0.00592515 0.00206689
131 1 -6.50232 -11.6488 19.9999 0 0 0
132 1 -6.76342 -9.44977 20.0056 -0.023364 -0.00810496 -0.000682585
133 1 -6.76318 -7.19731 20.1455 0.0161561 0.00505878 0.0111166
141 1 -5.25854 -11.6473 19.9999 0 0 0
142 1 -4.47674 -10.5145 19.9999 0 0 0
143 1 -5.43632 -9.63246 20.0227 -0.0171913 -0.00353588 0.00238283
144 1 -4.67595 -8.49008 20.1157 -0.0144479 0.0126782 0.0096263
145 1 -5.48119 -7.31639 20.1658 0.0105418 0.00606363 -0.00805918
161 1 -3.01281 -10.5144 19.9999 0 0 0
162 1 -3.23183 -8.26384 20.0373 -0.0104457 0.00693131 0.00261845
171 1 -2.23133 -11.6474 19.9999 0 0 0
172 1 -2.4169 -9.26715 20.0989 0.00700423 0.0185288 0.00722916
173 1 -2.68514 -7.15433 19.544 0.0202577 0.0169877 -0.0279006
181 1 -0.986751 -11.6474 19.9999 0 0 0
182 1 -0.205108 -10.5143 19.9999 0 0 0
183 1 -1.06998 -9.43943 20.0672 0.00753869 0.0311851 0.00591225
184 1 -0.274501 -8.4221 19.9401 0.00910918 0.00459544 -0.00718741
185 1 -1.21598 -7.4297 19.4249 0.0251512 0.01661 -0.0312206
201 1 1.25901 -10.5143 19.9999 0 0 0
202 1 1.21274 -8.45074 19.825 0.0295016 0.0218962 -0.0179441
211 1 2.0406 -11.6474 19.9999 0 0 0
212 1 2.06204 -9.47059 20.0974 0.0128048 0.0104665 0.00762413
213 1 2.24605 -7.45264 19.3872 -0.00371715 0.0231548 -0.00125572
221 1 3.28523 -11.6473 19.9999 0 0 0
222 1 4.06705 -10.5143 19.9999 0 0 0
223 1 3.47962 -9.32189 20.0679 0.0284046 0.0238555 0.00657268
224 1 4.43401 -8.40919 20.0042 0.0399585 0.00737482 -0.00369681
225 1 3.57415 -7.33134 19.3965 -0.0182528 0.0061475 -0.028184
241 1 5.53108 -10.5143 19.9999 0 0 0
242 1 5.81361 -8.47665 20.0973 0.00765667 0.00418446 0.00649772
251 1 6.31174 -11.6474 19.9999 0 0 0
252 1 6.43748 -9.6004 20.0312 0.00925875 0.00435071 0.00397826
253 1 6.51062 -7.204 19.9175 0.0047318 0.00775068 -0.0133165
261 1 7.55524 -11.6498 19.9999 0 0 0
204 1 2.23616 -6.46081 21.4334 0.0108572 -0.0549311 0.0234551
265 1 7.9689 -7.23625 20.0629 0.0178951 0.00983691 0.00140539
263 1 7.70573 -9.50335 20.0027 -0.00588972 0.0174786 -0.000477023
262 1 8.33779 -10.5154 19.9999 0 0 0
264 1 8.61794 -8.48785 20.0313 0.0016355 -0.00199474 0.00286216
281 1 9.79556 -10.5245 19.9999 0 0 0
282 1 10.0028 -8.24041 20.0075 0.00231659 -0.0224285 8.08633e-05
291 1 10.5816 -11.6418 19.9999 0 0 0
292 1 10.6063 -9.38533 20.0015 0.0115756 -0.00933268 -0.000324479
293 1 10.6605 -7.05242 20.0124 0.00165842 -0.0143537 0.000678937
301 1 11.8019 -11.7522 19.9999 0 0 0
302 1 12.7161 -10.5156 19.9999 0 0 0
303 1 11.8934 -9.22642 19.9999 0 0 0
304 1 12.655 -8.00627 19.9999 0 0 0
305 1 11.8992 -6.77596 19.9999 0 0 0
321 1 14.087 -10.4984 19.9999 0 0 0
322 1 14.0714 -8.01298 19.9999 0 0 0
66 1 -13.0658 -5.54976 19.9999 0 0 0
67 1 -13.7179 -4.30197 19.9999 0 0 0
68 1 -13.0406 -3.0891 19.9999 0 0 0
69 1 -13.6883 -1.86008 19.9999 0 0 0
70 1 -13.0424 -0.636745 19.9999 0 0 0
83 1 -11.5387 -5.54743 19.9999 0 0 0
84 1 -11.5566 -3.09089 19.9999 0 0 0
85 1 -11.5625 -0.637245 19.9999 0 0 0
94 1 -11.0678 -4.3492 20.0055 -0.00812571 0.00214536 -0.000315189
95 1 -11.1884 -1.88656 20.0123 -0.00677047 -0.00015053 0.000520075
106 1 -8.94675 -5.78927 20.0787 0.012752 -0.00491928 0.00608952
107 1 -9.62453 -4.51454 20.0453 -0.011286 0.000754084 0.00239391
108 1 -9.10478 -3.24007 20.093 0.0242738 -0.00870902 0.00550557
109 1 -9.8768 -1.90787 20.0496 0.00552795 -0.00129247 0.00329018
110 1 -9.11029 -0.635689 20.051 0.012529 -0.0123268 0.00105306
123 1 -7.52959 -5.91706 20.1988 0.0209696 -0.0158275 0.0110364
124 1 -7.68835 -3.3044 20.039 0.0102779 0.00779143 -0.00592326
125 1 -7.75519 -0.795117 19.8809 0.000227127 -0.00874938 -0.00825945
134 1 -6.93931 -4.63881 20.0159 0.033112 0.0166233 -0.0116991
135 1 -7.06192 -2.05615 19.5176 0.0153501 -0.0166652 -0.0326736
146 1 -4.86121 -5.96328 19.4324 -0.000745587 0.0124528 -0.0372196
147 1 -5.73236 -4.71329 19.1827 0.0214749 0.0325655 -0.0297975
148 1 -5.48269 -3.42871 18.8393 0.00982513 -0.00104196 -0.0215495
149 1 -5.66769 -2.16874 19.0283 -0.00771797 -0.0223932 -0.0034977
150 1 -5.19305 -1.32978 20.4552 -0.0217008 -0.0245394 0.0523568
163 1 -3.31155 -5.8236 19.4263 0.0146363 0.0169497 0.0176445
164 1 -4.3493 -4.16591 21.7058 -0.0377577 0.00579403 0.0316228
165 1 -5.59737 -2.10833 21.7758 0.00601461 -0.0244024 0.00787743
174 1 -3.32931 -4.82782 20.4024 0.0292281 -0.00617375 0.035677
175 1 -5.37445 -3.45423 21.7182 -0.00796463 0.0556826 0.0385384
186 1 -0.0433422 -6.26581 19.6066 0.0347356 -0.000753495 0.0380772
187 1 -1.76916 -4.11977 20.7724 0.00369913 0.0110173 0.00213677
188 1 -0.834885 -5.48775 20.9691 -0.00133891 0.0058714 0.00168305
190 1 -1.89258 -2.93133 20.812 -0.0255945 -0.0544134 0.042906
205 1 -0.992853 -2.96364 19.1745 -0.050955 -0.0692294 -0.0281262
203 1 1.46557 -6.15754 20.0771 0.0138629 0.00343296 0.0533189
226 1 4.43332 -5.99054 19.5067 0.0245122 0.0167421 -0.00767927
227 1 4.0857 -5.1243 20.6722 0.0352344 0.014822 0.0364568
229 1 5.25067 -4.19461 20.8648 0.0175637 -0.011578 0.0056079
230 1 5.84109 -1.09757 21.7967 0.04574 0.0148739 0.010813
243 1 6.00556 -6.06559 19.4016 0.0235254 0.0298032 -0.0151404
244 1 6.27428 -3.56916 19.8523 -0.0320798 -0.0113066 0.0236479
245 1 6.23654 -0.746549 20.4123 -0.0125286 0.00313319 -0.0176908
254 1 6.84853 -4.93989 19.3697 0.0229448 -0.0385369 -0.0287773
255 1 6.83232 -2.21059 20.0194 0.0143372 0.00889436 0.0198526
214 1 3.25164 -5.50825 21.9629 0.0462127 -0.0363399 -0.0182612
267 1 8.18043 -4.69315 19.8453 0.00714389 -0.00597017 -0.0143736
269 1 8.13663 -2.0814 19.6933 -0.038432 -0.0134998 0.00326623
266 1 8.74518 -6.0138 20.0479 0.0111996 -0.0217221 0.00187698
268 1 8.80299 -3.32173 19.8974 -0.0337948 -0.00735573 -0.0147886
270 1 8.71961 -0.801647 19.8852 -0.0435851 0.0205317 -0.0152173
283 1 10.1067 -5.79319 20.0486 -0.00330459 -0.0126047 0.00400958
284 1 10.0599 -3.29371 20.0698 -0.0323112 -0.0347308 0.00462332
285 1 10.035 -0.743532 20.0895 -0.0471561 -0.0324475 0.00748913
294 1 10.5985 -4.48366 20.0289 -0.0148034 0.00309659 0.0029444
295 1 10.6232 -2.02755 20.0085 0.00360884 0.00460074 0.00133
306 1 12.6496 -5.55341 19.9999 0 0 0
307 1 11.9041 -4.32686 19.9999 0 0 0
308 1 12.647 -3.09734 19.9999 0 0 0
309 1 11.9037 -1.86828 19.9999 0 0 0
310 1 12.6457 -0.637745 19.9999 0 0 0
323 1 14.0539 -5.56516 19.9999 0 0 0
324 1 14.0472 -3.10129 19.9999 0 0 0
325 1 14.0438 -0.638188 19.9999 0 0 0
71 1 -13.6826 0.591886 19.9999 0 0 0
72 1 -13.0424 1.82079 19.9999 0 0 0
73 1 -13.6895 3.04359 19.9999 0 0 0
74 1 -13.0413 4.27397 19.9999 0 0 0
75 1 -13.7195 5.48914 19.9999 0 0 0
86 1 -11.5623 1.82169 19.9999 0 0 0
87 1 -11.5564 4.27485 19.9999 0 0 0
96 1 -11.1136 0.590625 20.0111 -0.0062088 0.000316928 0.000574004
97 1 -11.0434 3.08945 20.0136 -0.00208865 -0.00396997 0.000714188
98 1 -11.0394 5.51239 20.0093 -0.00407826 0.011765 0.000415692
111 1 -9.85476 0.627359 20.0325 -0.000533722 -0.00193252 0.00291072
112 1 -9.0747 1.91687 20.044 0.0106559 0.0126171 -0.00011114
113 1 -9.70512 3.20094 20.0421 0.00416944 0.0184636 0.00176354
114 1 -8.89398 4.4484 20.0392 0.00417318 0.00718489 0.00167796
115 1 -9.67669 5.61826 20.041 0.00157678 -0.0070723 0.00184615
126 1 -7.65244 1.84625 19.8819 -0.000516197 -0.000282991 -0.00707062
127 1 -7.53989 4.45136 19.9777 0.00839083 -0.00522765 -0.000142705
136 1 -7.04256 0.554493 19.731 0.00952293 0.00175114 -0.00055268
137 1 -6.81736 3.18811 19.7067 0.0338428 -0.0016281 -0.0128172
138 1 -6.78397 5.7781 20.1534 0.0130647 -0.00673237 0.00447269
151 1 -5.57387 0.512848 19.9789 0.00945212 -0.0162437 0.00567957
152 1 -5.0059 1.78433 20.06 0.046778 0.00445152 -0.0020491
153 1 -5.52856 3.31518 19.4768 0.0100834 -0.0320324 -0.0103613
154 1 -4.78426 4.51924 19.27 0.00766975 0.0033087 -0.000591329
155 1 -5.30692 5.80825 19.9671 0.0395024 0.00346742 -0.0175046
166 1 -4.58936 1.51091 21.4199 -0.0233296 -0.0128187 0.0109968
167 1 -3.76236 5.25392 18.7215 -0.00201802 -0.0058127 -0.0310399
176 1 -1.63844 4.02215 21.5452 0.0357226 0.0698606 -0.0268791
178 1 -2.4729 5.87301 19.1538 0.0190739 0.0189896 0.0171758
191 1 -2.99338 4.48285 20.691 -0.0338311 0.0736519 0.0773877
194 1 -1.27504 4.89807 20.7444 -0.0487783 -0.0028413 0.00922609
195 1 -1.03193 5.66705 19.544 -0.0010569 -0.0204412 0.0133828
207 1 2.52391 4.93787 20.7481 0.0613663 0.050437 0.0308077
217 1 3.91657 4.97863 21.3328 0.0205718 0.0041532 0.000444958
218 1 2.17077 5.9996 19.705 0.0204017 -0.000261172 -0.0122748
232 1 7.04995 2.90533 21.5471 0.0349348 0.0137606 0.0286823
234 1 4.41543 5.05779 19.7674 -0.00237759 -0.0220488 0.0287963
235 1 3.54622 6.20524 19.0942 -0.00405416 0.0111034 -0.0136991
246 1 6.48087 1.9304 19.7704 0.0131163 -0.0219279 0.0223059
247 1 5.69955 4.69281 19.506 0.013636 0.018275 0.0160474
256 1 6.95369 0.628612 19.8998 -0.0121428 0.0054691 0.0236852
257 1 6.46639 3.4447 19.5496 0.00167232 -0.00343805 0.010185
258 1 6.45691 5.83131 19.6772 0.0127879 0.015753 -0.0145367
275 1 7.83054 5.99 20.047 0.0108072 -0.00110591 -0.00779276
273 1 8.08339 3.39402 19.724 -0.0100983 -0.00248221 -0.0149342
271 1 8.26882 0.621012 19.7855 -0.0397664 -0.0171565 -0.0028881
272 1 8.75645 2.05905 19.8637 -0.0465708 0.0242351 -0.0113464
274 1 8.62981 4.65202 20.0893 -0.03474 -0.020296 -0.00236654
286 1 10.1226 1.69641 20.0396 -0.0253154 0.0167592 0.00236021
287 1 9.96684 4.42364 20.0139 -0.0281227 0.0181844 0.0027868
296 1 10.604 0.396838 20.0076 0.0149353 0.0108725 0.000320017
297 1 10.5853 3.0504 20.0256 -0.0295202 -0.0304359 0.00241219
298 1 10.6298 5.82169 20.0002 -0.0320075 -0.00375832 0.000198752
311 1 11.9034 0.592385 19.9999 0 0 0
312 1 12.6457 1.82255 19.9999 0 0 0
313 1 11.9038 3.05326 19.9999 0 0 0
314 1 12.6466 4.28301 19.9999 0 0 0
315 1 11.9041 5.51379 19.9999 0 0 0
326 1 14.0439 1.82305 19.9999 0 0 0
327 1 14.0468 4.28589 19.9999 0 0 0
76 1 -13.0678 6.73987 19.9999 0 0 0
77 1 -13.743 7.99662 19.9999 0 0 0
78 1 -13.076 9.22053 19.9999 0 0 0
79 1 -13.6781 10.6114 19.9999 0 0 0
80 1 -13.0646 11.9529 19.9999 0 0 0
88 1 -11.5395 6.7281 19.9999 0 0 0
89 1 -11.5535 9.18478 19.9999 0 0 0
90 1 -11.7099 11.6077 19.9999 0 0 0
99 1 -10.9348 7.93542 20.0034 -0.00810986 -0.00185065 4.45905e-06
100 1 -10.9027 10.4758 19.9999 0 0 0
116 1 -8.96382 6.97709 20.0145 0.0115911 -0.0041102 0.000289575
117 1 -9.64145 8.20571 20.0085 -0.00978149 0.00199661 -0.000314094
118 1 -8.92586 9.32777 20.0066 -0.0184885 0.00638438 -0.000120124
119 1 -9.37207 10.4804 19.9999 0 0 0
120 1 -8.62688 11.6228 19.9999 0 0 0
130 1 -7.38724 11.6024 19.9999 0 0 0
128 1 -7.59022 7.10665 20.0462 0.0131052 -0.00733607 0.00491567
129 1 -7.61359 9.56754 19.9998 -0.000346851 0.000971724 -0.0008202
139 1 -6.81229 8.39239 20.0128 -0.00441971 -0.00230023 0.00191856
140 1 -6.60892 10.469 19.9999 0 0 0
156 1 -4.58234 6.93055 20.1375 -0.00299281 -0.0244641 -0.00669181
157 1 -5.36606 8.08 20.0973 0.0164625 -0.0553136 0.0094453
158 1 -4.49529 9.21172 19.9922 -0.015423 -0.0328753 -0.00093985
159 1 -5.14663 10.4689 19.9999 0 0 0
160 1 -4.36691 11.6023 19.9999 0 0 0
168 1 -3.31453 7.07283 19.634 -0.00398288 -0.0185004 -0.0350129
169 1 -3.16031 9.31944 20.0636 0.0261287 -0.00844913 0.00812265
170 1 -3.12269 11.6018 19.9999 0 0 0
179 1 -2.54492 8.04948 20.1693 0.0252405 -0.0350783 -0.000140095
180 1 -2.34103 10.4689 19.9999 0 0 0
196 1 -0.343381 6.75269 19.5764 -0.004203 -0.0322375 -0.00919658
197 1 -0.96931 7.9551 19.9387 0.00329677 -0.0382687 -0.00633412
198 1 -0.345571 9.09848 20.0512 -0.000994569 -0.0297999 0.00314955
199 1 -0.876963 10.4688 19.9999 0 0 0
200 1 -0.0953724 11.6018 19.9999 0 0 0
208 1 1.08227 7.16841 19.7762 0.0292721 -0.0346699 -0.0040253
209 1 1.13441 9.32907 19.9857 0.0127099 -0.0371922 -0.00167121
210 1 1.14924 11.6018 19.9999 0 0 0
219 1 1.94025 8.35083 19.8926 0.007415 -0.000145047 -0.00222305
220 1 1.93091 10.4688 19.9999 0 0 0
236 1 4.29893 7.2522 19.7418 0.0181446 -0.0100089 -0.0244627
237 1 3.41657 8.27673 20.0055 0.0254521 -0.013984 0.000118096
238 1 4.26687 9.47299 20.04 0.00369872 -0.0269797 0.00401382
239 1 3.39506 10.4687 19.9999 0 0 0
240 1 4.17656 11.6018 19.9999 0 0 0
248 1 5.69195 7.03609 19.9873 0.0024592 -0.0152157 -0.0108371
249 1 5.60631 9.40345 20.0076 0.00883519 -0.00733284 0.00123701
250 1 5.4212 11.6017 19.9999 0 0 0
259 1 6.41498 8.29746 20.0613 0.0207198 -0.0104231 0.00411115
260 1 6.20335 10.4685 19.9999 0 0 0
277 1 7.81019 8.38309 20.0139 0.0164885 -0.00737862 0.00128796
276 1 8.53864 7.12803 20.0629 0.00404371 0.0119526 0.00342646
278 1 8.53082 9.52511 20.0002 0.0109547 0.00803214 -0.000468695
279 1 7.66711 10.4687 19.9999 0 0 0
280 1 8.44529 11.6024 19.9999 0 0 0
288 1 10.0347 7.05248 20.0113 -0.00583744 0.00471644 0.00161701
289 1 9.85112 9.38487 20.0041 -0.000750326 0.0101065 -9.69509e-05
290 1 9.6873 11.6101 19.9999 0 0 0
299 1 10.6094 8.29178 20.0016 0.00621312 0.0235443 -0.000371332
300 1 10.4752 10.4755 19.9999 0 0 0
316 1 12.6473 6.74288 19.9999 0 0 0
317 1 11.9051 7.97805 19.9999 0 0 0
318 1 12.6583 9.19198 19.9999 0 0 0
319 1 11.9246 10.4937 19.9999 0 0 0
320 1 12.7709 11.5297 19.9999 0 0 0
328 1 14.0456 6.75188 19.9999 0 0 0
329 1 14.0237 9.17042 19.9999 0 0 0
330 1 13.9415 11.792 19.9999 0 0 0
189 1 -0.991427 -0.898909 22.1914 0.0146553 0.00251438 0.0110808
228 1 4.37729 -5.72247 23.0267 -0.0499659 -0.0341167 0.0633498
192 1 -4.75795 2.96344 22.8559 -0.0594992 0.063232 0.0670304
193 1 -0.792418 5.973 22.8031 0.00505596 0.0514204 0.0633834
177 1 -1.85537 6.3142 23.449 0.0515119 0.0498117 0.0767258
206 1 1.99839 0.143152 22.6909 -0.0120627 0.0576442 0.0309742
215 1 3.21176 1.62162 23.1696 0.089202 -0.0183057 0.0854117
233 1 4.63823 4.87033 23.3497 0.072645 0.0169425 0.038729
231 1 5.98272 5.26857 23.1135 -0.000732819 0.101436 0.0637113
216 1 2.50516 -3.30772 28.5126 0.0449145 -0.0625205 0.193086
8 1 -1.34215 -5.69635 38.1059 -0.0195213 -0.0887719 0.435913
7 1 -0.21919 -5.71447 38.2938 -0.00956462 -0.114768 0.445104
27 1 -5.0428 -0.593819 39.4829 -0.107642 0.00808499 0.507895
51 1 0.143129 2.1915 39.1417 0.0576083 0.0188534 0.438796
25 1 2.85636 1.42914 38.3105 0.00471746 0.00446107 0.456337
49 1 1.59357 2.52731 38.736 0.0298174 0.0424483 0.449237
38 1 2.76004 1.09896 39.6394 0.00909273 0.0576749 0.458471
28 1 -2.37154 -2.93514 40.4971 0.0183905 -0.0258955 0.498292
44 1 -2.7115 -1.38278 40.7754 -0.0121028 -0.0551533 0.503871
52 1 -1.38615 -3.47579 41.3035 -0.0309495 -0.00853513 0.490105
20 1 -2.47503 -1.60034 42.2241 0.0142617 -0.00633925 0.501617
36 1 -0.317783 -3.0751 42.5987 0.00574006 0.0224036 0.450029
50 1 -0.413508 -1.69756 42.056 -0.057433 0.0109566 0.509456
60 1 -1.85067 -2.30035 43.4608 -0.0272103 -0.0225885 0.478297
4 1 -3.16678 -0.870529 43.1372 -0.00191863 -0.0318116 0.438244
12 1 -0.666098 -4.17189 43.9745 -0.0348629 -0.00304753 0.47286
58 1 -2.39491 -2.31347 44.9323 0.0391029 -0.027719 0.481133
19 1 -3.23956 -1.03532 44.8872 0.0207449 0.00753749 0.493791
34 1 -1.32369 -3.04769 45.9598 -0.0158557 0.010156 0.483354
43 1 -2.6341 -0.100685 45.9785 -0.00303983 -0.00256654 0.455371
11 1 -0.297699 -3.35781 45.0169 -0.0650667 0.00930129 0.497643
26 1 1.89397 -2.28763 40.5712 0.00353557 0.00788611 0.446475
40 1 2.92245 -1.76145 40.5768 0.0102032 0.00211019 0.484867
16 1 3.16957 -1.41871 41.9397 0.00477111 0.00340898 0.508095
35 1 0.693755 -2.23177 41.3951 -0.00780427 0.00136122 0.450524
2 1 2.6311 -0.0628662 43.3643 0.00445893 0.0310984 0.464249
59 1 2.37228 -2.53012 43.2438 0.0287842 -0.00512911 0.486609
57 1 2.24851 -1.91917 44.2961 0.0232039 -0.0170268 0.461354
15 1 2.05858 -0.0377355 44.4943 0.00887831 0.0173602 0.497612
33 1 0.532253 -1.99966 45.9298 -0.0282825 -0.0138662 0.501507
42 1 -4.90278 0.500024 40.146 0.00934186 0.00619602 0.528112
32 1 -1.85619 1.49825 40.1163 -0.0387248 -0.0411552 0.496036
10 1 -0.631721 2.24721 40.0395 -0.0299346 0.00709449 0.451515
18 1 -4.59577 1.14218 41.3656 -0.0298504 0.00487706 0.493876
56 1 -2.29765 1.50476 41.5222 0.0278006 -0.0116875 0.516807
9 1 -0.0223429 3.72244 42.6828 0.0326429 0.00276235 0.498154
54 1 -1.55092 0.946316 42.6305 -0.0485344 -0.0106488 0.491513
3 1 -3.62677 0.363354 42.5578 -0.0130531 -0.0405456 0.449918
30 1 -1.37281 3.54394 43.5393 -0.00660978 0.0159521 0.536068
17 1 -2.81038 1.31815 43.0194 0.012657 0.0366649 0.46815
45 1 -0.616277 5.22572 45.235 -0.0346074 0.0629861 0.515294
41 1 -2.37033 1.22406 44.8043 0.00447471 0.0205269 0.499507
47 1 -1.38483 3.56015 44.9878 -0.0249459 -0.0268277 0.47324
23 1 -2.32844 2.25481 45.6849 0.016727 -0.00383182 0.469149
21 1 -0.226537 4.58758 45.9152 -0.0165796 0.0172599 0.493454
31 1 2.27838 3.1829 40.0104 0.0312346 0.0443403 0.462693
55 1 1.82904 2.39566 41.2623 0.00455778 0.0135351 0.457559
14 1 2.53139 1.11681 41.2111 -0.0150594 0.0146463 0.472983
1 1 3.00237 1.22394 42.4965 0.0211828 0.0348368 0.462035
53 1 2.15034 2.66181 43.9321 0.0198954 -0.0170069 0.533466
29 1 1.36722 3.5956 43.0483 -0.0207544 -0.0134921 0.494462
13 1 3.47409 1.99148 44.08 -0.0303312 -0.0021298 0.511872
37 1 3.77312 1.0402 45.0934 -0.0208468 0.0318874 0.500675
39 1 2.35858 0.66955 45.7825 -0.0342253 -0.0217065 0.478155
48 1 -0.830509 -2.08426 46.9834 -0.0224789 0.00313875 0.488154
24 1 -1.67742 -1.12318 47.2729 0.0124002 -2.64753e-06 0.503744
46 1 0.826377 -0.658134 46.3355 -0.018428 0.0273311 0.498468
5 1 -0.537167 1.35992 46.6185 0.00696564 0.0490465 0.536284
6 1 0.297406 2.33754 46.655 0.024192 -0.043071 0.49669
22 1 1.23025 0.651174 46.7978 0.0107472 0.0334833 0.479429
