ITEM: TIMESTEP
43900
ITEM: NUMBER OF ATOMS
330
ITEM: BOX BOUNDS pp pp pp
-1.4715758017245314e+01 1.5057610017245315e+01
-1.2710055654020760e+01 1.2664508654020761e+01
-5.0001035148846022e+01 1.0000103514884636e+02
ITEM: ATOMS id type x y z vx vy vz
61 1 -13.6674 -11.9461 19.9999 0 0 0
62 1 -13.1228 -10.6724 19.9999 0 0 0
63 1 -13.7825 -9.34696 19.9999 0 0 0
64 1 -13.0772 -8.00396 19.9999 0 0 0
65 1 -13.7542 -6.79742 19.9999 0 0 0
81 1 -11.507 -10.5408 19.9999 0 0 0
82 1 -11.5331 -8.01671 19.9999 0 0 0
91 1 -10.7591 -11.6424 19.9999 0 0 0
92 1 -10.9179 -9.26683 19.9957 0.0176776 0.00346109 -0.000600266
93 1 -10.8392 -6.77217 19.9816 0.022084 0.000656233 -0.000317596
101 1 -9.52473 -11.6468 19.9999 0 0 0
102 1 -8.74136 -10.5124 19.9999 0 0 0
103 1 -9.51139 -9.29636 19.98 0.0172035 0.00245527 -0.00148879
104 1 -8.94075 -8.05174 20.0323 0.0308746 0.0269097 0.00446541
105 1 -9.47345 -6.80737 20.0628 -0.00060681 0.0113584 0.00346189
121 1 -7.27873 -10.5146 19.9999 0 0 0
122 1 -7.52917 -7.97272 20.1578 0.0167446 0.00678214 0.0063921
131 1 -6.50232 -11.6488 19.9999 0 0 0
132 1 -6.71207 -9.13213 19.9891 0.0220863 0.010089 0.00384964
133 1 -6.71645 -6.72816 20.2626 -0.00722448 0.0333532 -0.00141866
141 1 -5.25854 -11.6473 19.9999 0 0 0
142 1 -4.47674 -10.5145 19.9999 0 0 0
143 1 -5.22496 -9.13061 20.1575 0.024407 0.0186207 0.00439408
144 1 -4.48803 -7.7934 20.1491 0.0286135 0.0467501 -0.0155778
145 1 -5.40942 -6.76561 19.743 0.00492388 0.0107186 -0.0175919
161 1 -3.01281 -10.5144 19.9999 0 0 0
162 1 -2.96858 -7.95657 19.834 0.032569 0.0105781 -0.0151948
171 1 -2.23133 -11.6474 19.9999 0 0 0
172 1 -2.29294 -9.09884 20.2033 0.02404 -0.0040439 0.00160494
173 1 -2.17584 -6.7867 19.3339 0.00449631 0.0381184 0.0123971
181 1 -0.986751 -11.6474 19.9999 0 0 0
182 1 -0.205108 -10.5143 19.9999 0 0 0
183 1 -0.885425 -9.18174 20.1616 0.0109882 0.0188074 -0.0165383
184 1 0.0624471 -8.09716 19.3813 0.005385 0.0223516 -0.0271412
185 1 -0.567836 -6.61455 19.2215 0.0227554 0.00630068 0.014214
201 1 1.25901 -10.5143 19.9999 0 0 0
202 1 1.67347 -8.01085 19.3573 0.013995 0.0233953 -0.026028
211 1 2.0406 -11.6474 19.9999 0 0 0
212 1 2.14329 -9.18335 20.0526 -0.020646 -0.0022175 -0.0172284
213 1 2.40169 -6.67349 19.5393 0.0121781 0.0107743 0.0147628
221 1 3.28523 -11.6473 19.9999 0 0 0
222 1 4.06705 -10.5143 19.9999 0 0 0
223 1 3.58499 -9.06448 20.2084 -0.0123183 0.0239327 -0.00401928
224 1 4.37863 -7.92693 19.6842 -0.0236164 0.00914471 -0.00754667
225 1 3.64409 -6.66128 19.2342 0.00463419 0.0368596 0.00800673
241 1 5.53108 -10.5143 19.9999 0 0 0
242 1 5.79559 -7.85846 20.0871 -0.0306378 0.0200665 -0.00960942
251 1 6.31174 -11.6474 19.9999 0 0 0
252 1 6.33697 -9.23371 20.1803 -0.000223454 0.00949802 0.0040427
253 1 6.72129 -6.8508 19.5453 -0.00226545 0.0357026 -0.0254702
261 1 7.55524 -11.6498 19.9999 0 0 0
203 1 1.77701 -6.37721 20.8853 0.0232879 -0.00440483 0.0320081
265 1 8.04722 -6.96688 20.0476 -0.0024677 0.0187023 -0.00319539
263 1 7.78303 -9.26696 20.0134 -0.0231653 0.00497592 0.00582655
262 1 8.33779 -10.5154 19.9999 0 0 0
264 1 8.5994 -8.17302 20.1452 -0.00774605 0.0065289 0.00735153
281 1 9.79556 -10.5245 19.9999 0 0 0
282 1 9.90963 -8.25768 20.0436 -0.00368788 0.0192245 0.00377439
291 1 10.5816 -11.6418 19.9999 0 0 0
292 1 10.5182 -9.39632 19.9816 -0.0103627 0.0125355 -0.00169721
293 1 10.5904 -7.12211 20.0625 0.0112543 0.0178506 0.00402562
301 1 11.8019 -11.7522 19.9999 0 0 0
302 1 12.7161 -10.5156 19.9999 0 0 0
303 1 11.8934 -9.22642 19.9999 0 0 0
304 1 12.655 -8.00627 19.9999 0 0 0
305 1 11.8992 -6.77596 19.9999 0 0 0
321 1 14.087 -10.4984 19.9999 0 0 0
322 1 14.0714 -8.01298 19.9999 0 0 0
66 1 -13.0658 -5.54976 19.9999 0 0 0
67 1 -13.7179 -4.30197 19.9999 0 0 0
68 1 -13.0406 -3.0891 19.9999 0 0 0
69 1 -13.6883 -1.86008 19.9999 0 0 0
70 1 -13.0424 -0.636745 19.9999 0 0 0
83 1 -11.5387 -5.54743 19.9999 0 0 0
84 1 -11.5566 -3.09089 19.9999 0 0 0
85 1 -11.5625 -0.637245 19.9999 0 0 0
94 1 -10.7629 -4.35109 20.0162 0.000160811 0.0038066 0.00208609
95 1 -10.6864 -1.91231 20.0626 -0.000345029 -0.00378291 0.00229564
106 1 -8.71505 -5.71222 20.2396 0.0164383 0.00267881 0.009126
107 1 -9.32366 -4.5137 20.1918 0.00678606 0.00696372 0.00833696
108 1 -8.6494 -3.37039 20.1752 0.0338602 0.00819395 0.00269986
109 1 -9.30234 -2.03839 20.1477 0.0239649 0.00264679 0.00452143
110 1 -8.73302 -0.751136 19.9799 0.035405 -0.00772447 -0.00668087
123 1 -7.3837 -5.62014 20.2722 0.00317543 0.0289081 -0.00379705
124 1 -7.42786 -3.2782 19.7233 0.0158606 -0.00281772 -0.0249743
125 1 -7.4484 -0.673616 19.5167 0.0327219 0.00666781 -0.0183037
134 1 -6.58625 -4.5214 19.7032 0.000980329 0.00446217 -0.0192457
135 1 -7.0199 -2.09751 19.1813 -0.00657252 0.0062678 -0.012725
146 1 -4.53395 -5.70651 18.8786 0.0245661 0.0115896 -0.0080152
147 1 -5.48802 -4.66538 18.8349 0.00969764 0.0255826 -0.00736276
148 1 -4.8686 -3.12984 18.5169 0.0239319 0.0179733 0.00890306
149 1 -5.60917 -2.08144 19.3678 0.00493054 -0.00929541 -0.00536902
150 1 -5.71354 -1.19888 20.5515 0.0152421 -0.0217905 0.0457073
163 1 -3.22736 -5.90588 19.7015 0.00983543 -0.020256 -0.0172514
164 1 -4.43891 -4.54297 21.7521 0.00734073 -0.00386084 0.00720341
165 1 -5.53406 -1.97741 21.9199 0.0154316 -0.0164403 0.000415935
174 1 -3.25966 -4.70272 21.6164 -0.0159217 0.0126143 0.0548761
187 1 -1.99787 -4.53129 20.5258 -0.0176288 0.0342798 -0.00518289
188 1 -0.652956 -5.14693 20.9325 0.0230322 0.0214026 0.0148897
190 1 -2.3887 -3.04072 21.6264 -0.0217205 -0.0231056 0.0352677
205 1 -2.21147 -4.61129 19.0804 -0.0663038 -0.088381 0.00600206
186 1 0.367686 -6.23646 20.7046 0.00992139 0.00308174 0.0360588
226 1 4.82411 -5.72652 19.6958 0.0105716 0.00862676 -0.00060763
227 1 4.77784 -5.58586 21.1392 0.00782414 -0.0610236 0.0384802
229 1 5.23961 -4.25902 20.9477 -0.0102286 0.000591551 0.0297989
230 1 6.69274 -0.606527 21.7468 0.0247725 0.0131775 0.00551862
243 1 6.06624 -5.80745 19.1244 0.0146781 0.0273139 -0.0124922
244 1 6.32433 -3.78184 20.2109 -0.00302663 -0.00230195 0.0168062
245 1 5.87385 -1.04528 20.7236 -0.0042868 -0.010412 0.0255304
254 1 6.60532 -4.6984 19.1991 -0.00897572 -0.0140376 -0.00321921
255 1 6.23245 -2.35053 20.1465 -0.0331342 0.0366897 -0.00283132
267 1 7.91523 -4.79288 19.3498 -0.0593828 0.0272686 -0.041677
269 1 7.56545 -2.07342 19.7535 -0.0278295 -0.00726077 -0.00206094
266 1 8.65632 -5.88498 20.0523 -0.014699 0.0136238 0.00070529
268 1 8.30602 -3.46353 19.5575 0.00895627 0.0100974 -0.0108751
270 1 8.21108 -0.756998 19.6466 -0.0108181 0.0176185 -0.00467646
283 1 9.993 -5.91246 20.1924 0.00385322 0.0134029 0.00957691
284 1 9.71427 -3.33095 20.0644 0.00647868 -0.00496867 -0.00550225
285 1 9.68628 -0.61088 19.9698 -0.00733227 0.00534742 -0.0148788
294 1 10.5715 -4.65683 20.1247 0.00120653 0.0159641 0.0037535
295 1 10.3606 -2.02513 20.1403 0.0251463 0.0305974 0.00260625
306 1 12.6496 -5.55341 19.9999 0 0 0
307 1 11.9041 -4.32686 19.9999 0 0 0
308 1 12.647 -3.09734 19.9999 0 0 0
309 1 11.9037 -1.86828 19.9999 0 0 0
310 1 12.6457 -0.637745 19.9999 0 0 0
323 1 14.0539 -5.56516 19.9999 0 0 0
324 1 14.0472 -3.10129 19.9999 0 0 0
325 1 14.0438 -0.638188 19.9999 0 0 0
71 1 -13.6826 0.591886 19.9999 0 0 0
72 1 -13.0424 1.82079 19.9999 0 0 0
73 1 -13.6895 3.04359 19.9999 0 0 0
74 1 -13.0413 4.27397 19.9999 0 0 0
75 1 -13.7195 5.48914 19.9999 0 0 0
86 1 -11.5623 1.82169 19.9999 0 0 0
87 1 -11.5564 4.27485 19.9999 0 0 0
96 1 -10.7022 0.593298 20.0586 0.00618442 -0.00343063 0.00270544
97 1 -10.7618 3.10791 20.0472 0.0107324 -0.0050289 0.00157223
98 1 -10.7568 5.4898 20.028 0.00873837 0.00720946 0.000755997
111 1 -9.29308 0.591641 20.1235 0.0125213 0.0103337 0.00439105
112 1 -8.64225 1.91783 19.9563 0.0344534 -0.00232595 -0.00622715
113 1 -9.2708 3.14277 20.0651 0.0239955 -0.0155995 -0.000823819
114 1 -8.55562 4.47747 20.0515 0.00531862 -0.0149398 0.000484885
115 1 -9.30071 5.60462 20.0738 0.0215743 -0.018961 0.000914778
127 1 -7.31638 4.21677 19.8861 0.00811105 -0.0174069 -0.00780949
126 1 -7.21264 1.86536 19.6941 0.0265933 -0.0111352 -0.00465261
136 1 -6.75817 0.566559 19.8465 -0.00186636 0.014985 -0.00640495
137 1 -6.5152 3.06318 19.6493 0.0524142 -0.0100523 -0.00262435
138 1 -6.58331 5.49388 20.0131 0.0225762 -0.0459958 -0.015423
151 1 -5.58024 0.0531876 20.5629 -0.0239641 -0.0109029 0.0248741
152 1 -4.33188 1.79788 19.9598 0.00752477 0.0282522 -0.00375538
153 1 -5.02486 3.01327 19.4755 -0.00696918 -0.0227361 0.0226564
154 1 -4.47647 4.24078 19.0393 0.00712866 -0.0214196 -0.0134558
155 1 -5.20006 5.40277 19.7113 0.0149577 -0.00868061 -0.0142875
166 1 -5.21876 1.14345 21.3023 -0.0109713 -0.0158057 -0.0223679
167 1 -3.22994 4.54503 18.345 0.0288214 -0.0393435 -0.00435179
176 1 -1.49124 4.94144 21.8189 -0.00385644 0.0295598 0.0652174
178 1 -2.56292 5.69702 18.5022 0.00461261 -0.0262425 -0.0622404
194 1 -2.33634 5.2197 20.7783 -0.0489709 0.0338548 -0.0179172
195 1 -1.38049 5.56839 19.372 -0.0307183 0.00245786 0.00103044
207 1 3.13114 5.88602 21.7537 0.0226966 0.0445255 0.0399204
217 1 4.16014 5.06606 21.378 -0.00324535 1.13666e-05 -0.00381831
218 1 2.5798 5.56272 19.5277 0.0211899 -0.0210418 0.00573632
234 1 4.66798 4.68147 19.7844 0.0127061 -0.0240093 0.00102987
235 1 3.98959 5.66109 19.0279 -0.00146623 -0.0315259 0.00345044
246 1 5.69504 1.91416 20.2571 -0.0518664 0.0224328 0.0210107
247 1 6.16121 4.58853 19.745 0.0147999 -0.0329301 0.00776585
256 1 6.1122 0.624536 20.2442 -0.0400635 -0.0220193 -0.00287755
257 1 6.36998 3.23463 19.841 -0.0149884 -0.00613947 0.00894735
258 1 6.65576 5.81229 19.4709 -0.000113921 -0.00913563 -0.00536415
271 1 7.5279 0.574074 19.6709 -0.0400405 -0.0350822 -0.00361525
275 1 7.95836 5.81838 19.7847 -0.0121907 -0.0125804 -0.0167104
273 1 7.70808 3.20311 19.4431 -0.0304932 -0.0276267 -0.00664274
272 1 8.35279 1.86764 19.5254 -0.0203935 0.000133671 -0.0180677
274 1 8.35 4.40306 19.8989 0.0237192 -0.0104267 -0.0112042
286 1 9.84895 1.89688 20.0004 0.0210984 0.00468702 -0.00435805
287 1 9.75104 4.35249 20.1277 0.0199553 0.00830862 0.00372989
296 1 10.2079 0.680987 20.1213 0.0208402 0.0167173 0.00456324
297 1 10.5031 3.23112 20.0627 0.00540644 -0.0107913 0.000121377
298 1 10.6132 5.62107 20.0556 0.0161163 -0.0119154 0.00598369
311 1 11.9034 0.592385 19.9999 0 0 0
312 1 12.6457 1.82255 19.9999 0 0 0
313 1 11.9038 3.05326 19.9999 0 0 0
314 1 12.6466 4.28301 19.9999 0 0 0
315 1 11.9041 5.51379 19.9999 0 0 0
326 1 14.0439 1.82305 19.9999 0 0 0
327 1 14.0468 4.28589 19.9999 0 0 0
76 1 -13.0678 6.73987 19.9999 0 0 0
77 1 -13.743 7.99662 19.9999 0 0 0
78 1 -13.076 9.22053 19.9999 0 0 0
79 1 -13.6781 10.6114 19.9999 0 0 0
80 1 -13.0646 11.9529 19.9999 0 0 0
88 1 -11.5395 6.7281 19.9999 0 0 0
89 1 -11.5535 9.18478 19.9999 0 0 0
90 1 -11.7099 11.6077 19.9999 0 0 0
99 1 -10.7916 7.94544 20.002 0.0210851 -0.0168941 -0.000183865
100 1 -10.9027 10.4758 19.9999 0 0 0
116 1 -8.61543 6.84499 20.0665 0.00189483 -0.0218166 0.00247081
117 1 -9.3863 7.92885 20.0038 0.0207961 0.0010525 0.000210286
118 1 -8.54378 8.99924 19.9906 0.014323 -0.00636332 -0.00151103
119 1 -9.37207 10.4804 19.9999 0 0 0
120 1 -8.62688 11.6228 19.9999 0 0 0
130 1 -7.38724 11.6024 19.9999 0 0 0
128 1 -7.41349 6.5959 20.1951 0.00858631 -0.0239141 0.0102639
129 1 -7.20558 8.95376 20.0089 0.033536 -0.0174606 0.00424963
139 1 -6.55889 7.68011 20.1474 0.0217819 -0.0033967 0.00645979
140 1 -6.60892 10.469 19.9999 0 0 0
156 1 -4.53977 6.6821 19.8563 -0.0251779 -0.00705986 -0.0149378
157 1 -5.1257 7.86472 20.197 0.0289118 0.00167292 0.000180301
158 1 -4.32893 9.13568 20.1869 -0.0130173 0.0127773 0.0148973
159 1 -5.14663 10.4689 19.9999 0 0 0
160 1 -4.36691 11.6023 19.9999 0 0 0
168 1 -3.19214 6.92753 19.4396 0.0111186 -0.0145707 -0.00296156
169 1 -3.0169 9.03196 20.1425 0.0353797 0.0233995 -0.00657623
170 1 -3.12269 11.6018 19.9999 0 0 0
179 1 -2.2698 7.81016 19.9635 -3.46239e-05 0.0117315 -0.00932373
180 1 -2.34103 10.4689 19.9999 0 0 0
196 1 -0.251666 6.34975 19.6234 -0.0108561 -0.0127673 0.00545345
197 1 -0.694493 7.79017 19.8722 0.00149444 0.0126891 -0.000893178
198 1 -0.130491 9.03305 19.9531 0.0282346 0.0133954 -0.00708548
199 1 -0.876963 10.4688 19.9999 0 0 0
200 1 -0.0953724 11.6018 19.9999 0 0 0
208 1 1.45334 6.51524 19.6219 0.0418825 -0.0644513 -0.0154792
209 1 1.29492 9.08236 19.9991 0.0320673 0.0139704 -0.000726244
210 1 1.14924 11.6018 19.9999 0 0 0
219 1 2.02608 7.73769 19.8634 -0.0223039 -0.000723008 0.0024078
220 1 1.93091 10.4688 19.9999 0 0 0
236 1 4.58449 7.06509 19.2298 0.005628 -0.0195256 -0.0236519
237 1 3.5961 7.84684 19.8383 0.0171539 0.00519851 -0.00540911
238 1 4.16638 9.23104 20.154 -0.0214834 -0.0199534 -0.0021267
239 1 3.39506 10.4687 19.9999 0 0 0
240 1 4.17656 11.6018 19.9999 0 0 0
248 1 5.93419 6.96713 19.6155 0.0190714 -0.0212484 -0.0267657
249 1 5.55925 9.18747 20.1281 -0.00530044 0.0270345 0.0117389
250 1 5.4212 11.6017 19.9999 0 0 0
259 1 6.56474 8.11174 20.1376 -0.0191631 0.000284458 0.00228456
260 1 6.20335 10.4685 19.9999 0 0 0
277 1 7.87718 8.0393 20.0959 -0.00524522 -0.0278987 0.00683527
276 1 8.57703 6.87099 20.0976 -0.00789857 -0.027447 1.65445e-05
278 1 8.44422 9.23297 20.0021 -0.00548957 -0.00362781 0.000829558
279 1 7.66711 10.4687 19.9999 0 0 0
280 1 8.44529 11.6024 19.9999 0 0 0
288 1 9.96828 6.72325 20.074 0.0133765 -0.0460175 0.00434202
289 1 9.83784 9.17456 19.9986 -0.0089125 -0.027797 -0.00057257
290 1 9.6873 11.6101 19.9999 0 0 0
299 1 10.5149 7.99566 20.0061 0.00385572 -0.0247203 0.000842741
300 1 10.4752 10.4755 19.9999 0 0 0
316 1 12.6473 6.74288 19.9999 0 0 0
317 1 11.9051 7.97805 19.9999 0 0 0
318 1 12.6583 9.19198 19.9999 0 0 0
319 1 11.9246 10.4937 19.9999 0 0 0
320 1 12.7709 11.5297 19.9999 0 0 0
328 1 14.0456 6.75188 19.9999 0 0 0
329 1 14.0237 9.17042 19.9999 0 0 0
330 1 13.9415 11.792 19.9999 0 0 0
204 1 2.87123 -7.02054 22.1365 0.047753 0.0012415 0.0460902
214 1 4.14604 -6.54665 22.3719 0.0164083 -0.0297193 0.0284045
175 1 -5.22587 -2.91775 22.6325 0.00765747 0.0371624 0.0108864
189 1 -0.665616 -0.825357 22.4428 0.0153262 0.00406116 0.0118273
228 1 2.99684 -6.36497 23.2952 -0.0524854 -0.0347166 -0.0286209
191 1 -2.86766 5.71258 22.5506 0.0446711 0.0363292 0.061499
192 1 -6.0444 4.24304 24.2182 -0.0590833 0.0586011 0.0621337
206 1 2.94667 1.88727 23.9126 0.107572 0.0615303 0.0881686
215 1 3.95146 0.738416 24.4807 -0.0299477 -0.0219122 0.0277742
233 1 6.38201 5.71415 24.1714 0.0713582 0.102645 0.0486073
232 1 7.75996 3.20971 22.2454 0.0322135 0.0137907 0.0378163
193 1 -0.478393 7.07838 24.1559 0.00741577 0.0556177 0.0733231
177 1 -0.921752 7.4488 25.1795 0.0502067 0.0477341 0.0682959
231 1 5.79874 7.01465 24.4784 0.000456135 0.0163523 0.051556
216 1 3.48431 -4.67067 32.7218 0.0449149 -0.0625209 0.193083
8 1 -1.79 -7.64998 47.6122 -0.0334036 -0.0837697 0.432318
7 1 -0.405518 -8.19519 47.9964 0.0043059 -0.119564 0.448891
28 1 -2.24465 -3.49697 51.1004 -0.00918555 -0.0258583 0.483906
44 1 -3.2073 -2.53713 51.2205 -0.024556 -0.0502704 0.468364
52 1 -1.55665 -4.12953 52.0408 0.011545 -0.0396164 0.474192
36 1 -0.422828 -2.73889 52.0953 -0.0269268 0.00252231 0.422333
50 1 -0.897039 -1.58414 52.6889 -0.0190594 0.00227671 0.483885
3 1 -4.66588 -0.197955 52.6826 -0.0415937 -0.0354132 0.482799
42 1 -5.54863 -0.0712069 50.9842 -0.0641118 -0.0230126 0.491793
26 1 1.70723 -1.85956 50.864 0.0113298 0.0252868 0.496291
40 1 2.95052 -1.75456 51.256 -0.036657 -0.00330394 0.47558
35 1 0.417425 -2.19076 51.4011 0.02074 0.0188382 0.441721
16 1 3.22379 -1.27906 52.6088 0.0297396 -0.0124174 0.411887
27 1 -6.79656 0.0941314 50.8186 -0.0496335 0.0435731 0.531846
32 1 -1.76832 1.3321 50.7761 0.0215129 0.0080834 0.517433
10 1 -1.51166 1.8411 49.5308 -0.0389981 -0.0223743 0.413055
18 1 -4.94945 1.06649 52.543 -0.0213471 -0.0136979 0.494885
56 1 -1.69369 1.57485 52.3301 0.0165963 -0.0127072 0.493693
25 1 2.72634 1.84001 48.8181 0.0055692 0.028499 0.524749
49 1 2.18528 3.40426 48.7539 0.0289165 0.014589 0.472989
51 1 0.993161 2.75564 48.9076 0.0201992 0.0300635 0.444685
38 1 3.28956 1.36452 50.1696 0.00830525 0.00479946 0.483746
31 1 2.4394 4.1582 50.0575 -0.000776725 0.0480547 0.458925
55 1 2.02068 3.0803 50.9529 0.0166793 0.0322353 0.455955
14 1 2.84575 1.83755 51.4736 0.04638 0.0526582 0.465822
20 1 -1.89656 -1.91447 53.4066 0.0139118 -0.0119907 0.465206
4 1 -3.46003 -1.05309 53.7799 -0.00402346 0.000404493 0.490843
60 1 -2.53639 -3.34344 54.0303 -0.0394421 -0.0391974 0.462545
12 1 -1.16752 -3.78299 54.1417 0.00116659 -0.00724033 0.507435
58 1 -2.16026 -2.53708 55.382 -0.0166984 -0.00690149 0.518518
19 1 -2.8245 -1.04287 54.986 0.012335 0.00330938 0.490637
11 1 -1.27083 -3.75588 55.7872 -0.0462235 -0.0203805 0.499008
34 1 -1.97385 -2.96179 56.6359 -0.0181999 -0.0186691 0.485387
43 1 -2.45246 -0.220797 55.9927 0.0119921 -0.0044499 0.464429
48 1 -1.34816 -1.8923 57.532 0.00108925 0.0288154 0.478935
24 1 -1.82044 -0.760422 57.7637 -0.0174741 0.0274881 0.45734
59 1 3.13993 -2.32731 53.6481 0.0223071 0.0288437 0.512499
15 1 2.47223 -0.316948 54.7969 0.0239315 0.0506484 0.482526
57 1 2.47254 -1.63866 54.9293 0.010575 -0.0418266 0.498552
33 1 0.284299 -1.63955 57.2644 -0.0396367 0.0191931 0.535461
46 1 0.272338 -0.1953 57.457 -0.00335442 0.0280137 0.514462
9 1 -0.131167 4.00141 53.6506 0.0125931 0.0159605 0.485594
54 1 -1.61223 0.736934 53.4887 -0.00994046 0.0153755 0.487125
17 1 -2.74684 1.67422 53.9744 0.0374871 -0.00854 0.515876
30 1 -1.21132 3.85791 54.2639 -0.0228908 0.0163236 0.499903
41 1 -2.56296 1.41037 55.3126 -0.0203188 0.022988 0.489309
47 1 -1.50268 3.70133 55.9347 -0.0183878 -0.0197331 0.483046
45 1 -1.4168 6.24812 56.4125 -0.0200638 0.0185382 0.523744
23 1 -2.21073 2.25607 56.2356 0.00696125 0.000175728 0.484399
21 1 -0.84188 5.00498 56.6752 -0.0338175 0.0689236 0.501341
5 1 -0.338351 2.19431 58.2846 0.0535818 0.043198 0.522897
1 1 3.18838 1.42362 53.0344 -0.0224248 -0.00171235 0.503204
2 1 2.69467 0.0385939 53.1729 -3.01253e-05 0.00564973 0.475215
29 1 1.46421 3.05197 54.1648 0.00227316 -0.0236848 0.493242
13 1 3.1929 1.87521 54.3759 -0.0064401 0.000829291 0.447666
53 1 2.00275 3.01631 55.3251 0.00591553 0.0186896 0.525739
37 1 3.3527 1.61253 56.2513 -0.0216071 0.0274042 0.481356
39 1 2.43694 0.537348 55.9218 -0.0106568 -0.0219178 0.478678
6 1 0.648859 1.72305 57.7533 -0.0359723 -0.0337474 0.526459
22 1 1.30802 0.557365 57.0001 0.00782548 -0.0239109 0.444252
