ITEM: TIMESTEP
45000
ITEM: NUMBER OF ATOMS
330
ITEM: BOX BOUNDS pp pp pp
-1.4715758017245314e+01 1.5057610017245315e+01
-1.2710055654020760e+01 1.2664508654020761e+01
-5.0001035148846022e+01 1.0000103514884636e+02
ITEM: ATOMS id type x y z vx vy vz
61 1 -13.6674 -11.9461 19.9999 0 0 0
62 1 -13.1228 -10.6724 19.9999 0 0 0
63 1 -13.7825 -9.34696 19.9999 0 0 0
64 1 -13.0772 -8.00396 19.9999 0 0 0
65 1 -13.7542 -6.79742 19.9999 0 0 0
81 1 -11.507 -10.5408 19.9999 0 0 0
82 1 -11.5331 -8.01671 19.9999 0 0 0
91 1 -10.7591 -11.6424 19.9999 0 0 0
92 1 -10.8763 -9.2562 19.9943 0.0197768 0.00614137 -0.000704235
93 1 -10.7988 -6.77331 19.9811 0.0136234 -0.00167477 -0.000206364
101 1 -9.52473 -11.6468 19.9999 0 0 0
102 1 -8.74136 -10.5124 19.9999 0 0 0
103 1 -9.47244 -9.28951 19.9769 0.0183573 0.00461493 -0.00134222
104 1 -8.86781 -7.99654 20.0425 0.034732 0.0222904 0.00477227
105 1 -9.47383 -6.78307 20.0706 0.000890213 0.0107343 0.00365718
121 1 -7.27873 -10.5146 19.9999 0 0 0
122 1 -7.48587 -7.95766 20.1718 0.023108 0.00792692 0.0063509
131 1 -6.50232 -11.6488 19.9999 0 0 0
132 1 -6.6536 -9.11108 20.0005 0.0308462 0.00864921 0.00653382
133 1 -6.73524 -6.6645 20.259 -0.00839209 0.0238239 -0.0026236
141 1 -5.25854 -11.6473 19.9999 0 0 0
142 1 -4.47674 -10.5145 19.9999 0 0 0
143 1 -5.17193 -9.08534 20.1644 0.023737 0.0226066 0.0017702
144 1 -4.43272 -7.70527 20.1121 0.0226108 0.0330179 -0.0181408
145 1 -5.38193 -6.73671 19.6975 0.0183922 0.0159049 -0.0231084
161 1 -3.01281 -10.5144 19.9999 0 0 0
162 1 -2.90241 -7.9364 19.7995 0.0270809 0.00633405 -0.0155805
171 1 -2.23133 -11.6474 19.9999 0 0 0
172 1 -2.23637 -9.11885 20.2075 0.0266848 -0.0131565 0.0019029
173 1 -2.1514 -6.72112 19.3601 0.0183425 0.0158498 0.0111749
181 1 -0.986751 -11.6474 19.9999 0 0 0
182 1 -0.205108 -10.5143 19.9999 0 0 0
183 1 -0.848006 -9.13561 20.1151 0.0222608 0.0216984 -0.0251143
184 1 0.0706546 -8.03644 19.3257 0.00440725 0.0272217 -0.0231168
185 1 -0.510688 -6.61846 19.2674 0.0286124 -0.0037025 0.0261549
201 1 1.25901 -10.5143 19.9999 0 0 0
202 1 1.69006 -7.96763 19.3065 0.00265237 0.0159457 -0.0198395
211 1 2.0406 -11.6474 19.9999 0 0 0
212 1 2.09913 -9.18426 20.01 -0.0188417 0.00212606 -0.0216263
213 1 2.40452 -6.64959 19.5779 -0.00981379 0.0105025 0.0205359
221 1 3.28523 -11.6473 19.9999 0 0 0
222 1 4.06705 -10.5143 19.9999 0 0 0
223 1 3.55422 -9.01734 20.1936 -0.0163962 0.0177851 -0.00939589
224 1 4.32651 -7.90793 19.6706 -0.0229708 0.00819449 -0.00479076
225 1 3.68546 -6.58208 19.2504 0.0322897 0.0356911 0.00624817
241 1 5.53108 -10.5143 19.9999 0 0 0
242 1 5.73148 -7.82504 20.0601 -0.0260328 0.0106434 -0.0154076
251 1 6.31174 -11.6474 19.9999 0 0 0
252 1 6.33125 -9.20665 20.1863 -0.00642814 0.0156941 0.00144837
253 1 6.71281 -6.78737 19.4955 -0.0062563 0.0205213 -0.0190532
261 1 7.55524 -11.6498 19.9999 0 0 0
203 1 1.83146 -6.39481 20.9631 0.0244238 -0.0110842 0.0372177
265 1 8.03301 -6.92852 20.038 -0.0111156 0.0154819 -0.00568903
263 1 7.72491 -9.25686 20.0277 -0.0283886 0.00418826 0.00710103
262 1 8.33779 -10.5154 19.9999 0 0 0
264 1 8.58116 -8.15916 20.1621 -0.00888647 0.00619566 0.00797309
281 1 9.79556 -10.5245 19.9999 0 0 0
282 1 9.90027 -8.21357 20.0524 -0.00480983 0.0208027 0.00418497
291 1 10.5816 -11.6418 19.9999 0 0 0
292 1 10.4997 -9.36656 19.9777 -0.00610313 0.0144047 -0.00187306
293 1 10.6166 -7.07765 20.072 0.0120944 0.0223268 0.00464594
301 1 11.8019 -11.7522 19.9999 0 0 0
302 1 12.7161 -10.5156 19.9999 0 0 0
303 1 11.8934 -9.22642 19.9999 0 0 0
304 1 12.655 -8.00627 19.9999 0 0 0
305 1 11.8992 -6.77596 19.9999 0 0 0
321 1 14.087 -10.4984 19.9999 0 0 0
322 1 14.0714 -8.01298 19.9999 0 0 0
66 1 -13.0658 -5.54976 19.9999 0 0 0
67 1 -13.7179 -4.30197 19.9999 0 0 0
68 1 -13.0406 -3.0891 19.9999 0 0 0
69 1 -13.6883 -1.86008 19.9999 0 0 0
70 1 -13.0424 -0.636745 19.9999 0 0 0
83 1 -11.5387 -5.54743 19.9999 0 0 0
84 1 -11.5566 -3.09089 19.9999 0 0 0
85 1 -11.5625 -0.637245 19.9999 0 0 0
94 1 -10.7697 -4.3419 20.0216 -0.00581293 0.00399536 0.00281833
95 1 -10.7023 -1.91752 20.0671 -0.0135133 -0.000535538 0.00189758
106 1 -8.68149 -5.70344 20.26 0.0135225 0.00577768 0.00932632
107 1 -9.31599 -4.49645 20.2099 0.000326812 0.00867175 0.00803834
108 1 -8.57959 -3.34295 20.1817 0.0294226 0.0157656 0.00336828
109 1 -9.25336 -2.0373 20.1576 0.0199231 -0.0011576 0.00450187
110 1 -8.65763 -0.76211 19.9662 0.0326299 -0.00109087 -0.00560606
123 1 -7.3716 -5.55144 20.2623 0.00786606 0.032729 -0.00501033
124 1 -7.38799 -3.29276 19.6678 0.0201741 -0.00978341 -0.0255453
125 1 -7.37561 -0.663956 19.473 0.0330929 0.00243781 -0.0211937
134 1 -6.59054 -4.50802 19.6607 -0.00430414 0.00788346 -0.0196398
135 1 -7.03414 -2.07254 19.1526 -0.00504588 0.0158482 -0.0133654
146 1 -4.4881 -5.68938 18.8748 0.0152435 0.00493132 0.00380551
147 1 -5.45767 -4.60019 18.8185 0.0189451 0.0327942 -0.00752747
148 1 -4.82232 -3.09379 18.5438 0.0176012 0.0148273 0.015856
149 1 -5.59352 -2.10111 19.3562 0.00909052 -0.00951831 -0.00616794
150 1 -5.66952 -1.26701 20.666 0.0237537 -0.0389241 0.0571168
163 1 -3.22714 -5.93282 19.6491 -0.0164593 -0.00834106 -0.0284496
164 1 -4.43737 -4.54565 21.7765 -0.00991477 0.00145677 0.0149692
165 1 -5.50148 -2.0033 21.9007 0.0134737 -0.004906 -0.0188777
174 1 -3.27388 -4.65945 21.7274 0.00816473 0.0268485 0.0449489
187 1 -2.02378 -4.447 20.5341 -0.0045746 0.0454045 0.018053
188 1 -0.593444 -5.11029 20.9636 0.0300068 0.0131967 0.0137549
190 1 -2.44128 -3.1051 21.7025 -0.0261537 -0.0365166 0.0333122
205 1 -2.3615 -4.79859 19.0908 -0.0680522 -0.0745969 -0.00149623
186 1 0.375085 -6.21722 20.7756 -0.000644872 0.013336 0.0287858
226 1 4.83629 -5.71232 19.694 0.000460999 0.00395636 3.68221e-05
227 1 4.79581 -5.711 21.2246 0.00864626 -0.052521 0.0380032
229 1 5.21625 -4.26773 21.0189 -0.0109908 -0.00829378 0.0353693
230 1 6.7437 -0.581076 21.7597 0.0218713 0.0101414 0.00651139
243 1 6.09087 -5.7526 19.0943 0.00405858 0.0161589 -0.0156673
244 1 6.30894 -3.78838 20.2527 -0.00888855 -0.00510471 0.0189458
245 1 5.86316 -1.05513 20.7894 -0.00648088 0.0029718 0.0351468
254 1 6.58674 -4.72 19.1889 -0.00486817 0.0014213 -0.00430157
255 1 6.16554 -2.26836 20.1331 -0.0275887 0.0348781 -0.0102736
269 1 7.51292 -2.09407 19.7446 -0.0187348 -0.0105926 -0.00632854
267 1 7.79893 -4.73118 19.2648 -0.046932 0.0313779 -0.0339138
266 1 8.62082 -5.84166 20.0475 -0.0177651 0.0266197 -0.00530067
268 1 8.3329 -3.43199 19.5385 0.0144167 0.0172916 -0.00677927
270 1 8.18952 -0.719838 19.639 -0.00912296 0.0151036 -0.00231665
283 1 10.0011 -5.87927 20.2137 0.00395049 0.0168912 0.00986595
284 1 9.72979 -3.3409 20.0494 0.00817316 -0.00294038 -0.00803241
285 1 9.66415 -0.612886 19.9367 -0.0118791 -0.00650794 -0.0149201
294 1 10.571 -4.60799 20.1322 -0.00179626 0.0281291 0.00306237
295 1 10.4196 -1.95305 20.142 0.0266885 0.0336927 -0.00124036
306 1 12.6496 -5.55341 19.9999 0 0 0
307 1 11.9041 -4.32686 19.9999 0 0 0
308 1 12.647 -3.09734 19.9999 0 0 0
309 1 11.9037 -1.86828 19.9999 0 0 0
310 1 12.6457 -0.637745 19.9999 0 0 0
323 1 14.0539 -5.56516 19.9999 0 0 0
324 1 14.0472 -3.10129 19.9999 0 0 0
325 1 14.0438 -0.638188 19.9999 0 0 0
71 1 -13.6826 0.591886 19.9999 0 0 0
72 1 -13.0424 1.82079 19.9999 0 0 0
73 1 -13.6895 3.04359 19.9999 0 0 0
74 1 -13.0413 4.27397 19.9999 0 0 0
75 1 -13.7195 5.48914 19.9999 0 0 0
86 1 -11.5623 1.82169 19.9999 0 0 0
87 1 -11.5564 4.27485 19.9999 0 0 0
96 1 -10.7015 0.585669 20.0642 -0.00467329 -0.00335329 0.0023292
97 1 -10.7401 3.08668 20.0504 0.00860252 -0.0137111 0.00128223
98 1 -10.7414 5.51179 20.0295 0.00531683 0.0116372 0.000659393
111 1 -9.26718 0.616095 20.1319 0.0111682 0.0107024 0.00300906
112 1 -8.56635 1.90707 19.9426 0.0343246 -0.00770277 -0.00621505
113 1 -9.2268 3.11267 20.0628 0.0156149 -0.0115685 -0.00120222
114 1 -8.55233 4.43196 20.0529 -0.0018534 -0.0262412 0.000723911
115 1 -9.26031 5.56659 20.0756 0.0143626 -0.0158183 0.000666678
127 1 -7.28294 4.18459 19.8679 0.0222613 -0.0128782 -0.00891339
126 1 -7.15814 1.8457 19.6846 0.0234082 -0.00623078 -0.00402905
136 1 -6.75411 0.587361 19.8316 0.00540904 0.00371939 -0.007123
137 1 -6.40667 3.04075 19.6454 0.0443332 -0.010585 -0.000680984
138 1 -6.53501 5.38373 19.9772 0.0200138 -0.0523307 -0.0167194
151 1 -5.64221 0.0308111 20.6076 -0.0323738 -0.0108031 0.0152258
152 1 -4.31934 1.85845 19.9585 0.00435584 0.0260987 0.00260765
153 1 -5.04073 2.95644 19.527 -0.00616285 -0.0269259 0.0232534
154 1 -4.45632 4.20594 19.0082 0.0113424 -0.0111597 -0.0146617
155 1 -5.16874 5.38043 19.6771 0.0144106 -0.0121693 -0.0171598
166 1 -5.23211 1.11882 21.2525 -0.000632266 -0.0051555 -0.0216573
167 1 -3.17434 4.45655 18.3389 0.0211196 -0.0408786 -0.00114087
176 1 -1.5101 5.01124 21.9661 -0.0181402 0.0359248 0.0636794
178 1 -2.55031 5.65054 18.3781 0.00671583 -0.0157735 -0.0493379
194 1 -2.43562 5.29246 20.7337 -0.037111 0.0315206 -0.0179951
195 1 -1.45461 5.57179 19.3764 -0.0365454 0.000713774 0.00432312
207 1 3.19044 5.97587 21.8377 0.0312048 0.0369737 0.0360684
217 1 4.14987 5.06766 21.358 -0.00610787 0.00158301 -0.0137904
218 1 2.61988 5.51184 19.5404 0.0162554 -0.0233064 0.00505454
234 1 4.69645 4.63444 19.8051 0.0126306 -0.0184775 0.0173071
235 1 3.99601 5.59043 19.0326 0.00540773 -0.0320871 0.00208964
246 1 5.57211 1.96844 20.3061 -0.0560882 0.0234293 0.0222917
247 1 6.17449 4.51625 19.7618 -0.0024745 -0.0312925 0.00728447
256 1 6.03258 0.560527 20.2324 -0.0338703 -0.0282664 -0.00804333
257 1 6.34068 3.22536 19.8581 -0.0137365 -0.00732821 0.00793269
258 1 6.65916 5.79161 19.4588 0.00299845 -0.0106654 -0.00572325
271 1 7.44748 0.507956 19.6621 -0.0332169 -0.024241 -0.00436417
275 1 7.9289 5.77788 19.7472 -0.0138193 -0.0245772 -0.0172368
273 1 7.64783 3.13655 19.4301 -0.0226708 -0.0315275 -0.00476975
272 1 8.30626 1.85973 19.4919 -0.0215605 -0.00736938 -0.0120904
274 1 8.40975 4.38513 19.8731 0.0297635 -0.00679804 -0.0127611
286 1 9.87464 1.91373 19.9853 0.00168195 0.0101176 -0.00954488
287 1 9.79401 4.37751 20.1338 0.0182464 0.0133562 0.00176582
296 1 10.2752 0.706995 20.1297 0.0394217 0.00676914 0.00293571
297 1 10.5192 3.20086 20.0627 0.00882849 -0.0162579 -6.37607e-05
298 1 10.6411 5.58277 20.0697 0.00926428 -0.0223964 0.0067951
311 1 11.9034 0.592385 19.9999 0 0 0
312 1 12.6457 1.82255 19.9999 0 0 0
313 1 11.9038 3.05326 19.9999 0 0 0
314 1 12.6466 4.28301 19.9999 0 0 0
315 1 11.9041 5.51379 19.9999 0 0 0
326 1 14.0439 1.82305 19.9999 0 0 0
327 1 14.0468 4.28589 19.9999 0 0 0
76 1 -13.0678 6.73987 19.9999 0 0 0
77 1 -13.743 7.99662 19.9999 0 0 0
78 1 -13.076 9.22053 19.9999 0 0 0
79 1 -13.6781 10.6114 19.9999 0 0 0
80 1 -13.0646 11.9529 19.9999 0 0 0
88 1 -11.5395 6.7281 19.9999 0 0 0
89 1 -11.5535 9.18478 19.9999 0 0 0
90 1 -11.7099 11.6077 19.9999 0 0 0
99 1 -10.7585 7.91227 20.0015 0.00896821 -0.0122947 -0.000280405
100 1 -10.9027 10.4758 19.9999 0 0 0
116 1 -8.61857 6.7861 20.0715 -0.00397468 -0.0313042 0.00214753
117 1 -9.3397 7.93398 20.0044 0.0220398 0.00364322 0.000269875
118 1 -8.51636 9.00297 19.9874 0.010975 0.00976309 -0.00140215
119 1 -9.37207 10.4804 19.9999 0 0 0
120 1 -8.62688 11.6228 19.9999 0 0 0
130 1 -7.38724 11.6024 19.9999 0 0 0
128 1 -7.38127 6.54529 20.2182 0.0214232 -0.0221765 0.0105029
129 1 -7.13387 8.92299 20.0191 0.030458 -0.00984154 0.0048558
139 1 -6.50708 7.68319 20.162 0.0243645 0.00485042 0.00690832
140 1 -6.60892 10.469 19.9999 0 0 0
156 1 -4.58958 6.66596 19.8218 -0.0182127 -0.00739284 -0.0168708
157 1 -5.06621 7.87707 20.1983 0.0250997 0.009317 0.00112264
158 1 -4.37067 9.15937 20.2182 -0.0226885 0.00929076 0.0133391
159 1 -5.14663 10.4689 19.9999 0 0 0
160 1 -4.36691 11.6023 19.9999 0 0 0
168 1 -3.16044 6.88082 19.4226 0.0164796 -0.028147 -0.0125231
169 1 -2.93839 9.09169 20.1287 0.0340375 0.0304956 -0.00584038
170 1 -3.12269 11.6018 19.9999 0 0 0
179 1 -2.26416 7.83548 19.9417 0.00493043 0.0111426 -0.0105375
180 1 -2.34103 10.4689 19.9999 0 0 0
196 1 -0.26195 6.33808 19.6364 0.0021825 0.00168614 0.00606144
197 1 -0.697244 7.80597 19.8682 -0.00301267 0.00220114 -0.00277588
198 1 -0.0647412 9.06696 19.9382 0.030395 0.0169538 -0.00649146
199 1 -0.876963 10.4688 19.9999 0 0 0
200 1 -0.0953724 11.6018 19.9999 0 0 0
208 1 1.52411 6.37914 19.5901 0.0228534 -0.0585489 -0.0128933
209 1 1.36464 9.1068 19.9959 0.0303292 0.00733257 -0.00208898
210 1 1.14924 11.6018 19.9999 0 0 0
219 1 1.98599 7.74356 19.8678 -0.0136055 0.00385812 0.00110742
220 1 1.93091 10.4688 19.9999 0 0 0
236 1 4.58848 7.01925 19.1778 -0.00211015 -0.0224007 -0.022994
237 1 3.62627 7.86918 19.8276 0.00980937 0.0126364 -0.00519964
238 1 4.1165 9.17498 20.1468 -0.022654 -0.0292626 -0.00397082
239 1 3.39506 10.4687 19.9999 0 0 0
240 1 4.17656 11.6018 19.9999 0 0 0
248 1 5.97927 6.92616 19.5588 0.0204484 -0.0154256 -0.0249063
249 1 5.5542 9.24408 20.1545 0.000522689 0.0231875 0.0122186
250 1 5.4212 11.6017 19.9999 0 0 0
259 1 6.50924 8.11136 20.1402 -0.0307523 -0.000421387 2.91378e-05
260 1 6.20335 10.4685 19.9999 0 0 0
277 1 7.8666 7.98015 20.1119 -0.00463467 -0.0253879 0.00771077
276 1 8.56692 6.81044 20.0979 -0.000733769 -0.0275288 0.000240118
278 1 8.43408 9.23015 20.0043 -0.00401312 0.000517809 0.00122363
279 1 7.66711 10.4687 19.9999 0 0 0
280 1 8.44529 11.6024 19.9999 0 0 0
288 1 9.98951 6.63194 20.0843 0.00536519 -0.0361993 0.00495205
289 1 9.81584 9.12151 19.9973 -0.0106684 -0.0201831 -0.000654917
290 1 9.6873 11.6101 19.9999 0 0 0
299 1 10.5283 7.93922 20.0082 0.00770996 -0.0268017 0.00108718
300 1 10.4752 10.4755 19.9999 0 0 0
316 1 12.6473 6.74288 19.9999 0 0 0
317 1 11.9051 7.97805 19.9999 0 0 0
318 1 12.6583 9.19198 19.9999 0 0 0
319 1 11.9246 10.4937 19.9999 0 0 0
320 1 12.7709 11.5297 19.9999 0 0 0
328 1 14.0456 6.75188 19.9999 0 0 0
329 1 14.0237 9.17042 19.9999 0 0 0
330 1 13.9415 11.792 19.9999 0 0 0
204 1 2.95231 -7.01559 22.2177 0.024081 -0.000524122 0.0235674
214 1 4.18946 -6.60319 22.4356 0.0258022 -0.0208333 0.02993
228 1 2.88855 -6.43971 23.236 -0.0459315 -0.0307964 -0.0204846
175 1 -5.20572 -2.8457 22.6573 0.0113157 0.0258903 0.0142466
189 1 -0.631846 -0.816343 22.4688 0.0153713 0.00412889 0.0118438
191 1 -2.76189 5.78848 22.6843 0.0527785 0.0318163 0.0586101
192 1 -6.17438 4.37196 24.3549 -0.0590815 0.0586026 0.0620682
206 1 3.20275 1.99737 24.1178 0.121511 0.0423231 0.0962483
215 1 3.86618 0.715496 24.5306 -0.0438568 -0.00268988 0.019638
233 1 6.53452 5.94872 24.2805 0.0672841 0.110126 0.050469
232 1 7.83086 3.23997 22.3293 0.0322351 0.0137227 0.0384464
193 1 -0.445134 7.18615 24.2764 0.0177001 0.0467481 0.0484424
177 1 -0.828177 7.56846 25.3705 0.0399812 0.0566535 0.0931495
231 1 5.80422 7.04188 24.5896 0.00452609 0.00887982 0.0495839
216 1 3.58312 -4.80822 33.1466 0.0449149 -0.0625209 0.193083
8 1 -1.83899 -7.84423 48.5702 -0.00805542 -0.0942072 0.43949
7 1 -0.420537 -8.44827 48.9771 -0.0210429 -0.109121 0.441724
26 1 1.72764 -1.80891 51.958 0.00727031 0.0205664 0.497994
27 1 -6.90668 0.189792 51.9878 -0.0500225 0.0433265 0.531222
32 1 -1.71722 1.35889 51.908 0.0251885 0.0174797 0.511238
10 1 -1.60025 1.78567 50.4591 -0.0416718 -0.0289383 0.435461
25 1 2.73641 1.90826 49.9701 0.00249529 0.0333354 0.51622
49 1 2.2485 3.42405 49.7882 0.0282806 0.00696685 0.468402
51 1 1.03864 2.82089 49.8838 0.0198727 0.0297076 0.44271
38 1 3.30821 1.37358 51.2304 0.0127522 -0.000896759 0.483579
31 1 2.44049 4.26985 51.0755 0.00069671 0.0504249 0.466458
55 1 2.06513 3.13971 51.9647 0.0245552 0.0238331 0.46259
28 1 -2.27679 -3.54705 52.1637 -0.0199068 -0.0209359 0.483332
44 1 -3.25708 -2.65226 52.2475 -0.0209027 -0.0541647 0.465225
42 1 -5.69086 -0.120124 52.0647 -0.0644062 -0.0214366 0.492391
52 1 -1.52004 -4.2141 53.0842 0.0218113 -0.0354518 0.473773
36 1 -0.49203 -2.7354 53.0295 -0.0348735 0.00210202 0.427491
50 1 -0.93537 -1.58606 53.7445 -0.0153289 -0.00572661 0.47465
3 1 -4.75149 -0.285236 53.7512 -0.0364232 -0.0417955 0.48795
20 1 -1.87568 -1.94855 54.4275 0.00496654 -0.0157094 0.461779
4 1 -3.47546 -1.05186 54.84 -0.00863819 0.000645016 0.474008
60 1 -2.6172 -3.41585 55.0485 -0.0398837 -0.0299494 0.459963
12 1 -1.15426 -3.8177 55.2639 0.0104482 -0.0210118 0.516744
58 1 -2.20357 -2.55733 56.5241 -0.0196592 -0.01305 0.518967
19 1 -2.80571 -1.0579 56.0658 0.00271635 -0.0161836 0.488083
11 1 -1.37145 -3.79741 56.868 -0.0435008 -0.0188254 0.483048
34 1 -2.0182 -2.99933 57.7087 -0.0220158 -0.0150587 0.491553
43 1 -2.41773 -0.206021 57.0436 0.0199059 0.0181667 0.491423
40 1 2.86872 -1.75819 52.3009 -0.0374561 0.000207653 0.474201
35 1 0.475211 -2.14459 52.3698 0.0304807 0.0222605 0.43975
16 1 3.28457 -1.30383 53.5261 0.0249471 -0.00943467 0.423871
59 1 3.1869 -2.25715 54.7742 0.0187537 0.0368608 0.513742
15 1 2.52562 -0.201968 55.8353 0.0246199 0.0451858 0.460504
57 1 2.49898 -1.74683 56.0213 0.0151431 -0.0503819 0.490004
18 1 -5.00006 1.04502 53.6283 -0.0239994 -0.00895236 0.491929
56 1 -1.66249 1.54987 53.3951 0.0110503 -0.0129902 0.475339
9 1 -0.0843232 4.03063 54.7156 0.0254832 0.0101913 0.485551
54 1 -1.63295 0.765605 54.5671 -0.0115906 0.0154512 0.491221
17 1 -2.65803 1.65652 55.0916 0.0462546 -0.00912488 0.496401
30 1 -1.26933 3.89307 55.3759 -0.026411 0.0155316 0.511215
41 1 -2.61679 1.45195 56.3937 -0.0271927 0.0165739 0.496466
47 1 -1.54261 3.66128 56.9999 -0.0192052 -0.0206473 0.48247
45 1 -1.4574 6.28186 57.5664 -0.0173826 0.0133562 0.525006
23 1 -2.18371 2.28178 57.3113 0.0181328 0.0245198 0.489907
21 1 -0.926108 5.15103 57.7713 -0.0417752 0.063281 0.495786
14 1 2.93989 1.96849 52.5026 0.0379068 0.0674381 0.473716
1 1 3.13616 1.41154 54.1268 -0.0247172 -0.00932521 0.485141
2 1 2.70179 0.0440911 54.2269 0.00652554 -0.00270922 0.483494
29 1 1.45641 3.00919 55.2497 -0.00978355 -0.014502 0.493949
13 1 3.17976 1.88461 55.3757 -0.00351379 0.00806259 0.463836
53 1 2.01883 3.05328 56.4766 0.00788896 0.0153178 0.521293
37 1 3.30122 1.67272 57.2985 -0.0251264 0.0285475 0.471559
39 1 2.41279 0.501015 56.9926 -0.0109311 -0.0112442 0.493977
22 1 1.31951 0.513255 57.9838 0.00209042 -0.0171597 0.450401
48 1 -1.33466 -1.84282 58.5854 0.00895678 0.015216 0.479056
24 1 -1.86555 -0.686156 58.777 -0.0243012 0.040473 0.463291
33 1 0.192663 -1.58731 58.4458 -0.0412244 0.0261978 0.537982
46 1 0.270833 -0.146518 58.584 0.00204413 0.0188473 0.510129
5 1 -0.225622 2.29534 59.4393 0.043582 0.0523267 0.530012
6 1 0.579367 1.63703 58.9028 -0.0219655 -0.0471223 0.515906
