ITEM: TIMESTEP
39100
ITEM: NUMBER OF ATOMS
330
ITEM: BOX BOUNDS pp pp pp
-1.4715758017245314e+01 1.5057610017245315e+01
-1.2710055654020760e+01 1.2664508654020761e+01
-5.0001035148846022e+01 1.0000103514884636e+02
ITEM: ATOMS id type x y z vx vy vz
61 1 -13.6674 -11.9461 19.9999 0 0 0
62 1 -13.1228 -10.6724 19.9999 0 0 0
63 1 -13.7825 -9.34696 19.9999 0 0 0
64 1 -13.0772 -8.00396 19.9999 0 0 0
65 1 -13.7542 -6.79742 19.9999 0 0 0
81 1 -11.507 -10.5408 19.9999 0 0 0
82 1 -11.5331 -8.01671 19.9999 0 0 0
91 1 -10.7591 -11.6424 19.9999 0 0 0
92 1 -11.0071 -9.27027 19.9994 0.0015173 0.000138705 -0.000220693
93 1 -10.9886 -6.81661 19.9895 0.0012363 0.00530256 -0.00122924
101 1 -9.52473 -11.6468 19.9999 0 0 0
102 1 -8.74136 -10.5124 19.9999 0 0 0
103 1 -9.64426 -9.40563 19.9925 0.00757957 0.0186488 -0.00100835
104 1 -9.03638 -8.21945 20.009 -0.00829918 0.00405687 0.000426702
105 1 -9.57035 -6.93884 20.0281 0.0215165 0.0148994 0.00347656
121 1 -7.27873 -10.5146 19.9999 0 0 0
122 1 -7.6322 -8.12677 20.0887 0.00606427 0.0244823 0.00754758
131 1 -6.50232 -11.6488 19.9999 0 0 0
132 1 -6.80433 -9.22167 19.9913 0.00272101 0.0129921 -0.00205101
133 1 -6.74197 -7.08381 20.2725 0.00202558 0.0236785 0.00481404
141 1 -5.25854 -11.6473 19.9999 0 0 0
142 1 -4.47674 -10.5145 19.9999 0 0 0
143 1 -5.44568 -9.34561 20.0909 0.0187482 0.033186 0.00769286
144 1 -4.75723 -8.24359 20.2088 0.0137808 0.0289263 0.00365233
145 1 -5.25791 -6.92589 19.87 -0.00359523 0.038993 -0.02557
161 1 -3.01281 -10.5144 19.9999 0 0 0
162 1 -3.30361 -8.05503 19.9736 0.0253652 0.0209334 -0.0167579
171 1 -2.23133 -11.6474 19.9999 0 0 0
172 1 -2.39597 -9.21834 20.1838 -0.000299918 0.0130235 0.00489197
173 1 -2.29412 -7.04528 19.2922 0.0191789 0.00685064 -0.00364589
181 1 -0.986751 -11.6474 19.9999 0 0 0
182 1 -0.205108 -10.5143 19.9999 0 0 0
183 1 -0.886053 -9.2042 20.1568 0.00903066 -0.00224611 0.00800139
184 1 -0.0927682 -8.22312 19.6789 0.0217458 0.00880682 -0.0287331
185 1 -0.726776 -6.97658 19.2291 0.0290729 0.0555169 -0.00834834
201 1 1.25901 -10.5143 19.9999 0 0 0
202 1 1.39305 -8.23859 19.6105 0.0225359 0.0171419 -0.0194099
211 1 2.0406 -11.6474 19.9999 0 0 0
212 1 2.24982 -9.24509 20.1533 0.00360067 0.0186672 -0.00321099
213 1 2.1391 -6.88837 19.4346 0.0107058 0.0484427 0.0121787
221 1 3.28523 -11.6473 19.9999 0 0 0
222 1 4.06705 -10.5143 19.9999 0 0 0
223 1 3.67407 -9.20234 20.1682 0.000509094 0.00444496 0.00841604
224 1 4.51599 -8.06324 19.804 -0.0139994 0.0280945 -0.0195651
225 1 3.83547 -7.05093 19.2314 0.0060132 0.0342984 -0.00607918
241 1 5.53108 -10.5143 19.9999 0 0 0
242 1 5.92819 -8.18425 20.1362 0.00412338 0.035914 -0.000210341
251 1 6.31174 -11.6474 19.9999 0 0 0
252 1 6.42252 -9.37919 20.1096 -0.0132996 0.0237919 0.00849727
253 1 6.71772 -7.16241 19.7705 0.0101808 0.0213727 -0.0189138
261 1 7.55524 -11.6498 19.9999 0 0 0
204 1 2.41574 -6.85938 21.6947 0.0288823 -0.0198757 0.0289823
265 1 8.013 -7.14123 20.0591 0.00200413 0.0136648 -0.000567205
263 1 7.77305 -9.33122 19.9922 0.0160387 0.00852995 -0.000513735
262 1 8.33779 -10.5154 19.9999 0 0 0
264 1 8.64461 -8.27738 20.0842 -0.000446126 0.0180642 0.00566049
281 1 9.79556 -10.5245 19.9999 0 0 0
282 1 9.94319 -8.38832 20.0167 -0.0046322 0.00454089 0.00175185
291 1 10.5816 -11.6418 19.9999 0 0 0
292 1 10.645 -9.45596 19.9941 -0.00929393 -0.000283965 -0.000941128
293 1 10.5787 -7.16614 20.0315 -0.00915978 -0.0071684 0.00259485
301 1 11.8019 -11.7522 19.9999 0 0 0
302 1 12.7161 -10.5156 19.9999 0 0 0
303 1 11.8934 -9.22642 19.9999 0 0 0
304 1 12.655 -8.00627 19.9999 0 0 0
305 1 11.8992 -6.77596 19.9999 0 0 0
321 1 14.087 -10.4984 19.9999 0 0 0
322 1 14.0714 -8.01298 19.9999 0 0 0
66 1 -13.0658 -5.54976 19.9999 0 0 0
67 1 -13.7179 -4.30197 19.9999 0 0 0
68 1 -13.0406 -3.0891 19.9999 0 0 0
69 1 -13.6883 -1.86008 19.9999 0 0 0
70 1 -13.0424 -0.636745 19.9999 0 0 0
83 1 -11.5387 -5.54743 19.9999 0 0 0
84 1 -11.5566 -3.09089 19.9999 0 0 0
85 1 -11.5625 -0.637245 19.9999 0 0 0
94 1 -10.9065 -4.33386 20.0062 0.0236519 -0.00367435 0.000279531
95 1 -10.9542 -1.86708 20.0327 0.0390449 -0.00190523 0.00302302
106 1 -8.81723 -5.75405 20.1627 0.00225143 0.00775189 0.00681581
107 1 -9.53704 -4.53928 20.1095 0.0334198 -0.00148317 0.00844446
108 1 -8.95344 -3.28503 20.1506 0.0194946 -0.0162114 0.0027013
109 1 -9.54975 -2.06302 20.1032 0.0299138 -0.0108553 0.00508747
110 1 -9.021 -0.717404 20.0399 0.0225465 0.00708034 -0.00532098
123 1 -7.35512 -5.76935 20.2596 -0.00137977 0.0183154 0.00273331
124 1 -7.4807 -3.37768 19.9297 0.00357442 0.00121826 -0.0131576
125 1 -7.60029 -0.785432 19.6878 0.00536253 0.00935674 -0.0171311
134 1 -6.72515 -4.55423 19.881 0.019713 0.002361 -0.0169105
135 1 -7.10038 -2.06164 19.2436 -0.0021648 0.000706371 -0.0138745
146 1 -4.74455 -5.95499 19.1204 0.0114824 0.0191308 -0.0254094
147 1 -5.58364 -4.60794 18.9174 0.0107244 -0.0237684 -0.00945404
148 1 -5.16959 -3.36361 18.5576 0.035158 0.0207661 -0.0170816
149 1 -5.58937 -2.10047 19.2563 0.00928133 0.0219745 0.0396744
150 1 -5.57275 -1.30094 20.6198 -0.0327337 0.0288783 -0.0364527
163 1 -3.31962 -5.73491 19.5988 0.0025575 -0.00265318 0.0210823
164 1 -4.5572 -4.36508 21.7721 0.00280451 -0.0357688 -0.00498888
165 1 -5.63761 -1.89003 21.758 -0.000420984 0.0215797 0.00603006
174 1 -3.19956 -4.71222 21.1344 0.0173316 -8.36591e-06 0.0470671
186 1 0.0822149 -6.14113 20.3058 0.0186767 0.0067985 0.055116
187 1 -1.75456 -4.64797 20.6751 -0.018847 -0.0202944 -0.0141331
188 1 -0.64436 -5.50466 20.83 0.0068457 0.0199709 -0.00637341
190 1 -2.20945 -2.88325 21.3031 -0.0194501 -0.00736926 0.034303
205 1 -1.65181 -3.81264 18.9761 -0.056685 -0.0783239 0.00416329
203 1 1.68014 -6.3456 20.6727 0.0121543 -0.0213327 0.0298204
226 1 4.53819 -5.92454 19.5527 0.0343813 0.0189488 0.0177759
227 1 4.56988 -5.11342 20.9743 0.0352048 -0.0316382 0.00843722
229 1 5.35911 -4.24966 20.8241 -0.0102206 0.00126468 -0.00180962
230 1 6.38127 -0.806536 21.7147 0.0387441 0.0271659 -0.00136937
243 1 6.01798 -5.98975 19.2075 -0.0155671 -0.000672382 -0.00743553
244 1 6.18749 -3.71624 20.1165 0.0254973 -0.0126619 0.00770611
245 1 6.0352 -0.948873 20.5071 -0.028659 -0.00764461 0.0221179
254 1 6.86062 -4.70974 19.1934 -0.0467405 0.0349619 -0.00328845
255 1 6.56781 -2.34375 20.1614 -0.032991 -0.037394 -0.00160347
267 1 8.28621 -4.87153 19.6568 0.00652862 -0.0208709 -0.0168006
269 1 7.7945 -2.10522 19.7394 -0.0178119 0.00660168 0.00352448
266 1 8.78212 -6.00713 20.0512 -0.00778323 0.0148102 -0.00105076
268 1 8.4076 -3.47849 19.7028 -0.0221477 0.00496116 -0.0141251
270 1 8.3485 -0.690668 19.7252 -0.0102076 -0.0267089 -0.00930812
283 1 10.0025 -5.9479 20.1115 -0.00982452 -0.00778303 0.00651596
284 1 9.71549 -3.38021 20.088 -0.0179334 0.0137257 -0.0024742
285 1 9.65047 -0.858224 20.0859 -0.00196581 0.0305062 -0.0103625
294 1 10.5467 -4.6137 20.0789 0.00326558 -0.0169266 0.00515658
295 1 10.4048 -2.11012 20.0739 -0.0357879 -0.0101143 0.00868647
306 1 12.6496 -5.55341 19.9999 0 0 0
307 1 11.9041 -4.32686 19.9999 0 0 0
308 1 12.647 -3.09734 19.9999 0 0 0
309 1 11.9037 -1.86828 19.9999 0 0 0
310 1 12.6457 -0.637745 19.9999 0 0 0
323 1 14.0539 -5.56516 19.9999 0 0 0
324 1 14.0472 -3.10129 19.9999 0 0 0
325 1 14.0438 -0.638188 19.9999 0 0 0
71 1 -13.6826 0.591886 19.9999 0 0 0
72 1 -13.0424 1.82079 19.9999 0 0 0
73 1 -13.6895 3.04359 19.9999 0 0 0
74 1 -13.0413 4.27397 19.9999 0 0 0
75 1 -13.7195 5.48914 19.9999 0 0 0
86 1 -11.5623 1.82169 19.9999 0 0 0
87 1 -11.5564 4.27485 19.9999 0 0 0
96 1 -10.9678 0.597938 20.0287 0.0325573 0.00216095 0.00267854
97 1 -10.9095 3.04587 20.0294 0.0204156 0.00413164 0.00189046
98 1 -10.9081 5.54738 20.019 0.0183704 -0.00870741 0.000994141
111 1 -9.50897 0.623722 20.0794 0.03652 -0.0128697 0.00429671
112 1 -8.93101 1.91842 20.0128 0.0221503 -0.00513943 -0.00479919
113 1 -9.51174 3.28884 20.0617 0.0187116 -0.00494816 0.00139376
114 1 -8.81483 4.47297 20.0545 0.0355481 0.00272943 -0.000293001
115 1 -9.49835 5.73576 20.0614 0.0172851 0.00433335 0.00153636
126 1 -7.51754 1.90116 19.7707 0.0298133 0.00653679 -0.0108137
127 1 -7.26717 4.4895 19.9565 0.00296359 -0.0194474 -0.00568137
136 1 -6.84052 0.465666 19.8039 0.0201336 -0.00277519 0.0110025
137 1 -6.76712 3.13562 19.653 -0.0038673 -0.00450239 0.0017047
138 1 -6.68109 5.69028 20.0992 -0.000174133 -0.00652227 -0.0063125
151 1 -5.47668 0.245279 20.2755 0.00157671 -0.0340342 0.0352644
152 1 -4.5512 1.74568 20.0828 0.0299238 -0.00507103 -0.019803
153 1 -5.14931 2.91255 19.4166 0.0372099 0.00727809 -0.000354837
154 1 -4.5818 4.5363 19.1702 0.0355133 -0.0232968 -0.0268421
155 1 -5.33395 5.65559 19.8661 -0.00452633 -0.0322237 -0.0114926
166 1 -4.96342 1.35109 21.3388 -0.0362956 -0.0222272 0.0056335
167 1 -3.47845 4.90906 18.3839 0.0132063 -0.0399093 0.00218783
176 1 -1.48085 4.65551 21.4105 0.00623114 0.0306154 0.0222617
178 1 -2.51215 5.93937 19.077 -0.0253976 -0.0122495 -0.0553374
191 1 -3.11835 5.25086 21.7871 0.00639385 0.0572342 0.0914313
194 1 -1.8581 5.04473 20.7558 -0.0475185 0.00916154 0.016631
195 1 -1.20965 5.46235 19.5376 -0.00842292 0.00446507 -0.0229427
207 1 2.83307 5.47056 21.3372 0.0488782 0.0364418 0.046537
217 1 4.24785 5.01202 21.364 -0.0156829 0.0116576 -0.0150225
218 1 2.37632 5.90332 19.4735 0.0213702 -0.043416 6.7571e-06
232 1 7.45154 3.07592 21.9033 0.0320744 0.0139992 0.0327943
234 1 4.51221 4.93133 19.8409 0.0263057 -0.0185971 0.00780136
235 1 3.74312 5.96195 19.076 0.0406076 -0.0345493 -0.00747355
246 1 6.18962 1.94168 20.0281 -0.0490333 -0.0215242 0.0253995
247 1 5.86474 4.74399 19.6647 0.0144928 0.00265492 0.0121181
256 1 6.57906 0.630656 20.1767 -0.0537979 0.0175513 0.0169115
257 1 6.52695 3.20206 19.7384 -0.0151388 -0.00106948 0.0139767
258 1 6.65413 6.01274 19.541 0.0109061 -0.0203146 -0.0101158
275 1 7.97835 5.8323 19.921 0.0060582 -0.00488074 -0.0123397
273 1 7.89213 3.29142 19.5392 -0.00393581 0.000572143 -0.013692
271 1 7.90016 0.688515 19.7259 -0.028077 0.0226606 -0.00879647
272 1 8.46998 1.96186 19.6997 -0.00787186 -0.0251342 -0.0153134
274 1 8.31582 4.56755 20.015 -0.0137899 -0.0120297 -0.0119258
286 1 9.66084 1.90382 20.0214 -0.0135065 0.00359709 -0.00370724
287 1 9.70279 4.44704 20.073 -0.0150684 -0.0180907 0.0061228
296 1 10.4553 0.50506 20.0582 -0.052417 0.00179678 0.00831646
297 1 10.4885 3.15357 20.0538 0.00747387 0.0293924 0.00198555
298 1 10.392 5.60022 20.0158 0.014193 -0.00319177 0.00266703
311 1 11.9034 0.592385 19.9999 0 0 0
312 1 12.6457 1.82255 19.9999 0 0 0
313 1 11.9038 3.05326 19.9999 0 0 0
314 1 12.6466 4.28301 19.9999 0 0 0
315 1 11.9041 5.51379 19.9999 0 0 0
326 1 14.0439 1.82305 19.9999 0 0 0
327 1 14.0468 4.28589 19.9999 0 0 0
76 1 -13.0678 6.73987 19.9999 0 0 0
77 1 -13.743 7.99662 19.9999 0 0 0
78 1 -13.076 9.22053 19.9999 0 0 0
79 1 -13.6781 10.6114 19.9999 0 0 0
80 1 -13.0646 11.9529 19.9999 0 0 0
88 1 -11.5395 6.7281 19.9999 0 0 0
89 1 -11.5535 9.18478 19.9999 0 0 0
90 1 -11.7099 11.6077 19.9999 0 0 0
99 1 -11.0154 8.01432 20.0029 0.0079152 0.00614858 -5.3848e-05
100 1 -10.9027 10.4758 19.9999 0 0 0
116 1 -8.81298 6.88977 20.035 0.0295531 0.00412353 0.00337271
117 1 -9.55514 8.02403 20.0044 0.0193077 -0.0222703 -0.00024634
118 1 -8.81051 9.23781 20.0017 0.0362861 -0.0275438 -0.000761024
119 1 -9.37207 10.4804 19.9999 0 0 0
120 1 -8.62688 11.6228 19.9999 0 0 0
130 1 -7.38724 11.6024 19.9999 0 0 0
128 1 -7.37352 6.85738 20.1214 -0.00397736 -0.0288104 0.00605403
129 1 -7.40706 9.19936 19.9923 0.00452044 -0.0346304 -0.000183469
139 1 -6.72715 7.98409 20.0791 0.0162224 -0.0524734 0.00774456
140 1 -6.60892 10.469 19.9999 0 0 0
156 1 -4.49265 6.70281 20.0128 0.0195368 -0.00469256 -0.0173946
157 1 -5.3272 7.85487 20.1756 0.00364483 0.0052836 0.00506697
158 1 -4.49542 9.0013 20.0501 0.0350026 0.00819997 0.0116469
159 1 -5.14663 10.4689 19.9999 0 0 0
160 1 -4.36691 11.6023 19.9999 0 0 0
168 1 -3.21949 6.98201 19.4218 -0.00111506 -0.00418887 -0.00106487
169 1 -3.07237 8.97232 20.164 -0.0232024 -0.0161514 0.00376839
170 1 -3.12269 11.6018 19.9999 0 0 0
179 1 -2.26112 7.81307 20.0672 0.0104298 -0.0104284 -0.011197
180 1 -2.34103 10.4689 19.9999 0 0 0
196 1 -0.102875 6.561 19.5729 0.00195043 -0.0159737 0.00625641
197 1 -0.936218 7.62102 19.8809 0.0335091 0.00276338 -0.00321494
198 1 -0.245103 9.0232 20.0314 0.000883447 -0.00309369 -0.00760513
199 1 -0.876963 10.4688 19.9999 0 0 0
200 1 -0.0953724 11.6018 19.9999 0 0 0
208 1 1.25022 6.80943 19.7064 -0.00327456 -0.00915213 -0.00391497
209 1 1.12165 9.0399 19.9889 -0.00338203 -0.00803741 0.00218414
210 1 1.14924 11.6018 19.9999 0 0 0
219 1 2.14218 7.96355 19.8612 0.0171893 -0.0418272 -0.00182607
220 1 1.93091 10.4688 19.9999 0 0 0
236 1 4.47148 7.14596 19.4325 0.0105308 0.00152328 -0.0209761
237 1 3.51725 8.09257 19.9466 -0.00722457 -0.0415681 -0.0139087
238 1 4.23198 9.19302 20.1144 0.00406038 0.00956475 0.00799752
239 1 3.39506 10.4687 19.9999 0 0 0
240 1 4.17656 11.6018 19.9999 0 0 0
248 1 5.84526 7.06942 19.8398 0.00724007 0.0102106 -0.0147802
249 1 5.6559 9.1466 20.0411 -0.00664 -0.0297762 0.0053472
250 1 5.4212 11.6017 19.9999 0 0 0
259 1 6.55307 8.09426 20.1009 0.0105753 -0.00178591 0.00370289
260 1 6.20335 10.4685 19.9999 0 0 0
277 1 7.94511 8.25524 20.0432 -0.0027143 -0.0132526 0.00407844
276 1 8.63994 7.121 20.0946 0.00219819 -0.0204218 0.00136019
278 1 8.53869 9.37764 19.9976 -0.0102428 -0.0226855 0.000150072
279 1 7.66711 10.4687 19.9999 0 0 0
280 1 8.44529 11.6024 19.9999 0 0 0
288 1 9.85936 7.11151 20.0435 -0.0020234 -0.0153754 0.00273874
289 1 9.8544 9.4176 20.0024 0.000778832 -0.0152132 -0.000218613
290 1 9.6873 11.6101 19.9999 0 0 0
299 1 10.5848 8.24034 19.9999 -0.0118792 -0.0254922 0.0003258
300 1 10.4752 10.4755 19.9999 0 0 0
316 1 12.6473 6.74288 19.9999 0 0 0
317 1 11.9051 7.97805 19.9999 0 0 0
318 1 12.6583 9.19198 19.9999 0 0 0
319 1 11.9246 10.4937 19.9999 0 0 0
320 1 12.7709 11.5297 19.9999 0 0 0
328 1 14.0456 6.75188 19.9999 0 0 0
329 1 14.0237 9.17042 19.9999 0 0 0
330 1 13.9415 11.792 19.9999 0 0 0
175 1 -5.26733 -3.23725 22.3309 0.00025976 0.0231756 0.0578199
189 1 -0.811247 -0.862057 22.33 0.0149781 0.00351777 0.0116213
214 1 3.86623 -6.13618 22.0177 0.0427252 -0.0560502 0.0359313
228 1 3.56498 -6.08764 23.4355 -0.0684569 -0.0268999 0.000352171
192 1 -5.47736 3.68052 23.6204 -0.0590298 0.0585775 0.062391
206 1 2.20442 1.09676 23.2202 0.0500216 0.0893931 0.0584994
215 1 3.94917 1.14901 24.0589 0.0274612 -0.0498719 0.0576697
233 1 5.6154 5.12164 23.777 0.0824825 0.0267271 0.0355305
193 1 -0.568433 6.55457 23.4717 0.017525 0.049582 0.0592099
177 1 -1.38364 6.98175 24.5036 0.0398219 0.0534472 0.0825011
231 1 5.87623 6.4653 23.9095 -0.0108005 0.0921439 0.0648782
216 1 3.05312 -4.07047 30.8682 0.0449149 -0.0625208 0.193083
7 1 -0.291486 -7.08012 43.722 -0.0519822 -0.10506 0.435478
8 1 -1.62472 -6.81284 43.4272 0.0228904 -0.0983249 0.445686
27 1 -6.22481 -0.311324 45.7396 -0.0795047 0.036162 0.52054
32 1 -2.00559 1.23569 45.9941 0.0304013 0.0141604 0.477677
10 1 -1.09174 2.10978 45.4299 -0.0539688 -0.0371486 0.441507
25 1 2.73234 1.65812 44.0465 -0.0117476 0.0222488 0.506792
49 1 1.95431 3.04443 44.3132 0.0211801 0.0341819 0.447074
51 1 0.806257 2.49095 44.5831 0.0345059 0.0232229 0.452578
38 1 3.05438 1.4073 45.4293 0.021726 0.00584976 0.481542
31 1 2.43365 3.72754 45.5917 0.0110964 0.0578474 0.465571
28 1 -2.34722 -3.11609 46.4033 0.00521345 -0.0291427 0.480758
44 1 -2.91741 -2.12544 46.6592 -0.0256758 -0.0486027 0.479136
52 1 -1.55137 -3.84569 47.4164 -0.00364738 -0.0358827 0.498998
20 1 -2.1373 -1.7812 48.5545 0.0312463 -0.01808 0.523665
36 1 -0.312238 -2.93112 48.0715 -0.00225951 0.0203979 0.434096
50 1 -0.78425 -1.52782 48.0874 -0.00786948 -0.00116273 0.478477
4 1 -3.43889 -1.01348 48.8356 -0.0158304 -0.0060568 0.506839
60 1 -2.21529 -2.7828 49.4806 -0.026027 -0.0611871 0.493618
12 1 -0.951896 -3.98968 49.574 -0.0245349 0.037674 0.451183
58 1 -2.08163 -2.59423 50.6865 0.00713716 -0.00499202 0.484069
19 1 -3.01153 -1.05928 50.5855 0.0246308 -0.0113988 0.443898
34 1 -1.82399 -2.90704 51.9348 -0.0214216 0.0107212 0.486265
43 1 -2.5348 -0.0437618 51.6404 0.0117991 0.000532388 0.454235
11 1 -0.830193 -3.51499 50.9224 -0.0588484 -0.0193292 0.489528
3 1 -4.13578 -0.031294 48.1785 -0.0568849 -0.0199706 0.464955
26 1 1.67268 -2.10616 46.2 -0.0227974 0.0210284 0.474914
40 1 3.12084 -1.73817 46.6042 0.0116875 -0.00103478 0.482977
35 1 0.552138 -2.23622 46.947 -0.0241229 -0.00306278 0.469177
16 1 3.10901 -1.25879 48.2296 -0.0119619 0.0263464 0.532066
59 1 2.83253 -2.58795 48.9286 0.0375284 0.0146771 0.475701
57 1 2.41122 -1.62529 50.178 0.0100622 0.0328366 0.480297
15 1 2.20885 -0.415536 50.2274 0.0295731 -0.0454576 0.43581
42 1 -5.03278 0.230187 46.2982 -0.0369936 -0.0410336 0.480048
18 1 -4.82958 1.24179 47.6458 -0.0100599 0.00373941 0.527812
56 1 -1.84999 1.55947 47.6575 0.026588 0.0104739 0.481906
9 1 0.0333494 3.84859 48.784 -0.0092025 0.0100545 0.513609
54 1 -1.59481 0.758121 48.6528 0.00812145 -0.0163102 0.505368
17 1 -2.98478 1.66712 48.9954 -0.000896765 0.0162557 0.509772
30 1 -1.28441 3.71023 49.7018 0.0190841 0.0134242 0.462034
41 1 -2.41897 1.1635 50.7395 -0.0115519 0.00654402 0.49066
47 1 -1.48114 3.59895 51.1874 0.00352447 0.0297951 0.516224
45 1 -1.16499 5.98658 51.42 -0.036397 0.0462979 0.51307
23 1 -2.15689 2.47495 51.5895 -0.0106031 -0.0294754 0.486851
21 1 -0.536629 4.51693 51.9074 -0.0248935 0.0229075 0.495686
55 1 1.8968 2.72535 46.6804 0.00750652 0.0254584 0.447554
14 1 2.49147 1.3842 46.9187 0.0229336 0.0372344 0.461445
1 1 3.26403 1.36537 48.3632 0.00915953 0.00608319 0.471608
2 1 2.72313 0.159685 48.7724 0.000595107 -0.0231105 0.44486
29 1 1.29292 3.36845 49.2141 0.0145262 -0.0319753 0.525224
53 1 2.10952 2.76975 50.4182 -0.0335404 0.0379616 0.507423
13 1 3.27731 1.90139 49.92 -0.0017511 -0.00770555 0.475883
37 1 3.65021 1.38213 51.4571 -0.0342018 0.0202076 0.516826
39 1 2.33649 0.642185 51.4942 0.0332997 0.0123998 0.462636
48 1 -1.07278 -2.14904 52.934 -0.0396743 0.000510789 0.479387
24 1 -1.74007 -0.866318 53.3021 -0.00837662 0.0190841 0.479738
33 1 0.442376 -1.73846 52.2174 0.00167145 0.026144 0.5206
46 1 0.431865 -0.557907 52.4785 -0.0297628 0.020198 0.513508
5 1 -0.66894 1.79502 53.2152 0.000592299 0.0399872 0.538335
6 1 0.807739 1.95412 52.7375 0.020537 -0.0259759 0.507501
22 1 1.22695 0.820232 52.6812 8.52778e-05 -0.0148241 0.4739
