ITEM: TIMESTEP
20800
ITEM: NUMBER OF ATOMS
330
ITEM: BOX BOUNDS pp pp pp
-1.4715758017245314e+01 1.5057610017245315e+01
-1.2710055654020760e+01 1.2664508654020761e+01
-5.0001035148846022e+01 1.0000103514884636e+02
ITEM: ATOMS id type x y z vx vy vz
61 1 -13.6674 -11.9461 19.9999 0 0 0
62 1 -13.1228 -10.6724 19.9999 0 0 0
63 1 -13.7825 -9.34696 19.9999 0 0 0
64 1 -13.0772 -8.00396 19.9999 0 0 0
65 1 -13.7542 -6.79742 19.9999 0 0 0
81 1 -11.507 -10.5408 19.9999 0 0 0
82 1 -11.5331 -8.01671 19.9999 0 0 0
91 1 -10.7591 -11.6424 19.9999 0 0 0
92 1 -10.8646 -9.24527 20.0004 0.00779657 0.00634676 5.09434e-06
93 1 -10.913 -6.79705 20.0034 0.0107849 -0.00414742 0.0001209
101 1 -9.52473 -11.6468 19.9999 0 0 0
102 1 -8.74136 -10.5124 19.9999 0 0 0
103 1 -9.4299 -9.29086 20.0031 0.00291509 0.00363412 6.21736e-05
104 1 -8.73344 -8.07191 20.0116 0.00907702 -0.0025616 0.000237825
105 1 -9.52938 -6.87298 20.0133 0.00756179 -0.00271129 0.000333765
121 1 -7.27873 -10.5146 19.9999 0 0 0
122 1 -7.3097 -8.13902 20.014 0.0148851 -0.00604369 0.000365739
131 1 -6.50232 -11.6488 19.9999 0 0 0
132 1 -6.5358 -9.31842 20.0085 0.010725 -0.00965469 0.000102508
133 1 -6.81544 -6.87776 20.0132 0.000225473 -0.00730474 0.000987146
141 1 -5.25854 -11.6473 19.9999 0 0 0
142 1 -4.47674 -10.5145 19.9999 0 0 0
143 1 -5.13498 -9.23672 20.0065 0.0122248 0.00740653 0.000119432
144 1 -4.53829 -8.03099 20.0015 0.00203404 -0.00834895 0.000895521
145 1 -5.52746 -7.02941 20.0137 -0.0242099 -0.0398199 0.00440532
161 1 -3.01281 -10.5144 19.9999 0 0 0
162 1 -3.10832 -8.17646 20.0028 -0.0120153 -0.0438547 0.00398511
171 1 -2.23133 -11.6474 19.9999 0 0 0
172 1 -2.34737 -9.32067 20.0033 0.00387909 -0.00839978 0.000950036
173 1 -2.56378 -7.11464 19.9059 -0.0133252 0.00125921 -0.0118094
181 1 -0.986751 -11.6474 19.9999 0 0 0
182 1 -0.205108 -10.5143 19.9999 0 0 0
183 1 -0.979053 -9.32235 19.9989 -0.00598854 -0.0134299 0.000770078
184 1 -0.466995 -8.21202 19.9744 -0.00661379 -0.0273436 0.000254072
185 1 -1.18861 -7.13847 19.9566 -0.00670844 -0.022043 -0.000835863
201 1 1.25901 -10.5143 19.9999 0 0 0
202 1 0.891738 -8.3028 19.9799 -0.00501189 -0.0266597 -0.0016944
211 1 2.0406 -11.6474 19.9999 0 0 0
212 1 1.81614 -9.33504 19.9966 -0.000986293 -0.0134974 0.00103293
213 1 1.80171 -7.22136 19.7659 0.0214447 -0.0108075 -0.013257
221 1 3.28523 -11.6473 19.9999 0 0 0
222 1 4.06705 -10.5143 19.9999 0 0 0
223 1 3.19099 -9.36632 19.9962 0.000640673 -0.0150319 0.00022028
224 1 3.89973 -8.38725 20.0044 0.00617994 -0.0386609 0.00222919
225 1 3.17198 -7.20263 19.9071 0.0199097 -0.0320766 -0.00896638
241 1 5.53108 -10.5143 19.9999 0 0 0
242 1 5.32266 -8.17716 20.0009 0.00570944 -0.0198308 0.000223635
251 1 6.31174 -11.6474 19.9999 0 0 0
252 1 6.23207 -9.20999 20.0056 0.00485491 -0.00175322 -3.86616e-05
253 1 6.22777 -7.02144 20.0164 0.0224416 -0.0234 0.00233413
261 1 7.55524 -11.6498 19.9999 0 0 0
265 1 7.55494 -6.73809 20.0109 0.0227306 -0.0168654 0.000539034
263 1 7.66451 -9.15942 20.007 0.00300315 -0.00713979 -1.98891e-05
262 1 8.33779 -10.5154 19.9999 0 0 0
264 1 8.3322 -7.89347 20.0108 0.0133311 -0.0114207 1.46985e-05
281 1 9.79556 -10.5245 19.9999 0 0 0
282 1 9.78277 -7.94899 20.0077 0.00530821 -0.00583216 7.34787e-05
291 1 10.5816 -11.6418 19.9999 0 0 0
292 1 10.5154 -9.19951 20.0028 -0.00464274 -0.00204748 9.11493e-05
293 1 10.4461 -6.71051 20.007 -0.000479908 -0.00483522 0.000104892
301 1 11.8019 -11.7522 19.9999 0 0 0
302 1 12.7161 -10.5156 19.9999 0 0 0
303 1 11.8934 -9.22642 19.9999 0 0 0
304 1 12.655 -8.00627 19.9999 0 0 0
305 1 11.8992 -6.77596 19.9999 0 0 0
321 1 14.087 -10.4984 19.9999 0 0 0
322 1 14.0714 -8.01298 19.9999 0 0 0
66 1 -13.0658 -5.54976 19.9999 0 0 0
67 1 -13.7179 -4.30197 19.9999 0 0 0
68 1 -13.0406 -3.0891 19.9999 0 0 0
69 1 -13.6883 -1.86008 19.9999 0 0 0
70 1 -13.0424 -0.636745 19.9999 0 0 0
83 1 -11.5387 -5.54743 19.9999 0 0 0
84 1 -11.5566 -3.09089 19.9999 0 0 0
85 1 -11.5625 -0.637245 19.9999 0 0 0
94 1 -11.0199 -4.30092 20.0062 0.0118771 0.00261115 0.000329558
95 1 -10.9143 -1.87937 20.0078 0.0109423 -0.00142516 0.000298389
106 1 -9.03181 -5.63051 20.0173 -0.00436742 -0.00315661 0.00101993
107 1 -9.56639 -4.3529 20.013 0.0142051 -0.000952535 0.000470383
108 1 -8.94313 -3.13491 20.0097 -0.00947763 0.00104986 0.00124325
109 1 -9.51603 -1.90001 20.0065 -0.00281683 0.00583377 0.000672169
110 1 -8.90044 -0.673418 19.9971 -0.0109103 0.00101978 0.0010229
123 1 -7.67629 -5.73303 20.0172 -0.000719816 -0.0051796 0.00139535
124 1 -7.6869 -3.13718 19.9828 -0.0195403 -0.00832121 0.00145158
125 1 -7.67 -0.679601 19.9526 -0.0281706 -0.00321411 0.000273982
134 1 -7.28738 -4.47752 19.9931 -0.00935281 -0.0111046 0.00181621
135 1 -7.23272 -1.92488 19.972 -0.00287148 0.00360118 0.00116421
146 1 -5.08292 -5.83726 19.9571 0.00682974 -0.0318312 -0.000957217
147 1 -5.80079 -4.8091 19.8286 -0.0297408 -0.012354 -0.0107781
148 1 -5.54116 -3.56484 19.4905 -0.0101039 0.0314059 -0.021756
149 1 -5.92545 -2.17114 19.5971 -0.00820732 -0.0170761 -0.0373525
150 1 -5.25798 -0.926126 19.9918 0.028288 -0.00326711 0.0071586
163 1 -3.67009 -6.02465 19.7198 -0.00741629 -0.0203453 -0.0227479
164 1 -3.85647 -4.21731 20.8316 0.0323152 -0.0391493 0.0392657
165 1 -4.98513 -1.97503 20.6589 -0.0589254 -0.031902 0.0269222
174 1 -3.12876 -4.75397 19.7318 -0.00982407 0.0158517 -0.00252574
175 1 -4.91325 -3.3104 21.0809 -0.07809 -0.0184472 0.0505382
186 1 -0.370993 -6.16949 19.6269 0.0257307 -0.00905795 -0.0150889
187 1 -1.93837 -5.07744 20.4254 -0.00889441 0.0197633 0.0291442
188 1 -0.776334 -4.87407 20.4388 0.00665018 -0.0403823 0.0185369
189 1 -1.37677 -1.01854 21.8045 0.0190405 0.0163052 0.0419453
190 1 -1.31214 -1.5543 19.9272 -0.0605547 -0.0720841 0.00262099
203 1 1.01919 -6.17882 19.7265 -0.018577 -0.0545323 -0.0338009
204 1 1.46042 -5.01992 20.4429 0.0290699 -0.0393869 0.0291289
205 1 0.378877 -1.26813 19.9036 -0.023916 -0.0649628 -0.0252981
214 1 2.62204 -5.25131 21.5018 0.0556372 -0.00722754 0.0746906
226 1 4.18151 -6.15851 19.7229 0.0135473 -0.0106269 -0.0240201
227 1 3.67905 -4.93249 20.1072 0.00520968 -0.00842917 0.0337885
228 1 4.50133 -4.68904 21.1672 0.0112194 -0.0775706 0.0800929
229 1 4.66073 -3.4366 20.4114 0.0571934 -0.0232706 -0.00925773
230 1 5.13376 -1.09315 20.8713 0.00942657 -0.0101446 0.0451181
243 1 5.76014 -5.84668 19.9478 0.0216402 -0.0285592 -0.0150724
244 1 5.893 -3.21758 19.9364 -0.0157096 -0.019543 0.00342258
245 1 6.47435 -0.885303 20.495 0.0135981 -0.00831212 0.0295858
254 1 6.51787 -4.62965 19.8536 0.0266828 -0.0179648 -0.0095952
255 1 6.7624 -2.02177 19.7507 0.0360046 0.0122959 -0.0164409
267 1 7.84157 -4.38584 19.9797 0.00552449 -0.00613709 -0.00216442
269 1 8.24495 -1.94588 19.9329 0.0154426 -0.0141106 -0.0108081
266 1 8.36748 -5.64679 20.0117 0.0169036 -0.0352779 0.000887166
268 1 8.68764 -3.31123 20.0047 0.0327288 -0.00561936 0.00143454
270 1 8.71025 -0.588445 19.9892 0.0671981 -0.00849007 0.00232307
283 1 9.72564 -5.49046 20.0105 0.00599049 -0.000207462 0.000248286
284 1 9.87526 -3.14775 20.0044 0.0450439 -0.0120918 0.000657621
285 1 9.89932 -0.5944 19.9992 0.0231019 0.00685693 0.000373982
294 1 10.4952 -4.33332 20.0053 0.00380199 0.00266693 -1.93642e-05
295 1 10.5189 -1.85852 20.0005 0.0101533 0.00318269 -8.28307e-06
306 1 12.6496 -5.55341 19.9999 0 0 0
307 1 11.9041 -4.32686 19.9999 0 0 0
308 1 12.647 -3.09734 19.9999 0 0 0
309 1 11.9037 -1.86828 19.9999 0 0 0
310 1 12.6457 -0.637745 19.9999 0 0 0
323 1 14.0539 -5.56516 19.9999 0 0 0
324 1 14.0472 -3.10129 19.9999 0 0 0
325 1 14.0438 -0.638188 19.9999 0 0 0
71 1 -13.6826 0.591886 19.9999 0 0 0
72 1 -13.0424 1.82079 19.9999 0 0 0
73 1 -13.6895 3.04359 19.9999 0 0 0
74 1 -13.0413 4.27397 19.9999 0 0 0
75 1 -13.7195 5.48914 19.9999 0 0 0
86 1 -11.5623 1.82169 19.9999 0 0 0
87 1 -11.5564 4.27485 19.9999 0 0 0
96 1 -10.8936 0.579231 20.0068 0.00894414 0.00456195 0.000174888
97 1 -10.8923 3.0528 20.0064 0.0128016 -0.00864332 0.000251772
98 1 -10.8765 5.53266 20.005 0.0136917 0.0113282 0.00021188
111 1 -9.49498 0.547662 20.0013 -0.00568214 -0.00413977 0.000393101
112 1 -8.87678 1.81879 19.9994 -0.00335257 -0.00129246 0.000862138
113 1 -9.50105 3.07015 20.0078 0.0005162 -0.0039688 0.000544931
114 1 -8.96705 4.35988 20.0101 -0.00689511 -0.00545778 0.000652348
115 1 -9.50929 5.61861 20.0124 0.00682637 0.000618793 0.000405063
126 1 -7.61041 1.86015 19.9559 -0.01482 0.00253525 -0.000646538
127 1 -7.70927 4.49027 19.9903 -0.0152689 0.012389 0.000163527
136 1 -7.19475 0.561747 19.868 -0.0202668 -0.000189013 -0.0078781
137 1 -7.15254 3.27539 19.9536 -0.00112343 0.00397643 -0.00351684
138 1 -6.96475 5.59648 20.0029 -0.0222775 0.0141843 0.00201209
151 1 -5.80683 0.516191 19.8449 0.00945577 -0.00646441 0.00182026
152 1 -5.50785 1.87787 20.2593 -0.0085675 0.0194348 -0.00145208
153 1 -5.91439 3.46684 19.7497 -0.00139454 -0.030221 -0.00355317
154 1 -5.05347 4.71101 19.6799 -0.0104186 0.027972 -0.0237008
155 1 -5.70025 6.07929 20.0349 0.0132174 0.00558563 0.0062319
166 1 -4.32499 2.19183 20.8311 -0.00368071 -0.0266233 0.0369395
167 1 -3.74601 4.99803 19.3657 -0.0141129 -0.0197646 -0.0198588
176 1 -3.02253 2.72683 20.9916 0.0508449 0.0711381 0.0499971
177 1 -2.78137 5.06192 21.5057 0.0468561 0.0481454 0.0654839
178 1 -2.86353 6.11742 19.3493 -0.00599096 0.0448416 -0.0438178
191 1 -1.40806 2.11935 19.9598 -0.0523107 0.0941177 0.000646885
192 1 -2.67169 1.38619 21.3838 -0.120078 0.0496469 0.0412385
193 1 -1.36974 4.75317 21.3715 0.0123553 0.0516783 0.0688346
194 1 -0.269132 4.87877 20.4679 -0.0204081 -0.0278725 0.0368817
195 1 -1.3255 6.21052 19.642 0.0480323 0.0108464 -0.0160349
215 1 0.914414 0.228825 21.1564 0.0407557 0.102966 0.0556872
206 1 2.41899 0.578162 21.8596 0.0369009 -0.0612169 0.0634831
207 1 1.57589 4.38558 20.3129 0.0431198 -0.0117953 0.0131045
217 1 3.02366 4.41896 20.7361 0.0488349 0.0532049 0.0325757
218 1 1.83359 5.99773 19.8912 0.0200915 0.0136829 -2.34804e-05
231 1 4.57001 2.8462 21.7742 0.0530118 0.0711414 0.0740901
232 1 6.02131 2.7161 20.8144 0.0842443 0.00219928 0.0392969
233 1 4.32969 4.22219 21.4234 -0.0320732 0.0818615 0.0741845
234 1 4.30294 4.78972 19.7244 -0.0166127 -0.00718736 0.010471
235 1 3.32832 6.11675 19.8432 0.000836215 0.0335458 -0.0227244
246 1 6.23081 1.70028 19.4676 0.000170165 -0.00709825 -0.013349
247 1 5.74453 4.58938 19.6166 0.00891349 0.0239494 -0.0419049
256 1 6.85813 0.46502 19.8682 0.0142591 0.0074975 -0.014453
257 1 6.64098 3.28428 19.6403 0.0441909 0.0237099 -0.037116
258 1 6.21364 5.8433 20.0089 0.0176155 0.000556058 -0.00214117
275 1 7.65435 5.63087 20.0268 0.0189301 0.0237317 0.00434563
273 1 8.05253 3.10838 20.0736 0.0211746 -0.011461 0.00774638
271 1 8.13482 0.601855 19.9012 0.0455516 -0.00582309 -0.00538288
272 1 8.50664 1.93128 19.9768 0.0519722 0.0141935 5.29023e-05
274 1 8.33128 4.4522 19.993 0.0381394 0.0408211 0.000392333
286 1 9.83645 1.87386 19.9992 0.0294977 0.0052077 4.14596e-05
287 1 9.68026 4.28303 20.0046 0.0279691 0.0144754 -0.0004793
296 1 10.5448 0.660637 19.9979 0.00637523 -0.00312378 -0.000387063
297 1 10.5045 3.10899 20.0025 0.00903222 0.00310063 -6.99018e-05
298 1 10.4078 5.4296 20.0057 0.00150778 0.0048068 -0.000134762
311 1 11.9034 0.592385 19.9999 0 0 0
312 1 12.6457 1.82255 19.9999 0 0 0
313 1 11.9038 3.05326 19.9999 0 0 0
314 1 12.6466 4.28301 19.9999 0 0 0
315 1 11.9041 5.51379 19.9999 0 0 0
326 1 14.0439 1.82305 19.9999 0 0 0
327 1 14.0468 4.28589 19.9999 0 0 0
76 1 -13.0678 6.73987 19.9999 0 0 0
77 1 -13.743 7.99662 19.9999 0 0 0
78 1 -13.076 9.22053 19.9999 0 0 0
79 1 -13.6781 10.6114 19.9999 0 0 0
80 1 -13.0646 11.9529 19.9999 0 0 0
88 1 -11.5395 6.7281 19.9999 0 0 0
89 1 -11.5535 9.18478 19.9999 0 0 0
90 1 -11.7099 11.6077 19.9999 0 0 0
99 1 -10.8283 7.95411 20.0023 0.00361705 0.0054764 5.27748e-05
100 1 -10.9027 10.4758 19.9999 0 0 0
116 1 -8.79702 6.82334 20.0137 0.00201321 0.00666074 0.00033417
117 1 -9.42477 8.03718 20.0089 0.00196782 -0.00162492 0.000153891
118 1 -8.6484 9.21564 20.0058 0.00593919 -0.00490623 0.000121094
119 1 -9.37207 10.4804 19.9999 0 0 0
120 1 -8.62688 11.6228 19.9999 0 0 0
130 1 -7.38724 11.6024 19.9999 0 0 0
128 1 -7.49068 6.89612 20.012 -0.019153 0.0262191 0.000143056
129 1 -7.24551 9.20009 20.007 0.011671 -0.00975249 0.000143165
139 1 -6.60143 7.98658 20.0093 -0.000979862 0.00792524 7.12063e-05
140 1 -6.60892 10.469 19.9999 0 0 0
156 1 -4.70794 6.98198 20.009 -0.0285387 0.0369015 0.00609548
157 1 -5.34094 8.06203 20.0038 -0.0144526 0.0250672 0.000211107
158 1 -4.49408 9.19782 20.0043 0.00768492 0.00518933 8.4373e-05
159 1 -5.14663 10.4689 19.9999 0 0 0
160 1 -4.36691 11.6023 19.9999 0 0 0
168 1 -3.37252 7.16967 20.0427 0.00920659 -0.0325795 -0.000443668
169 1 -3.07078 9.4113 19.9986 0.00350343 0.0378806 -5.47106e-05
170 1 -3.12269 11.6018 19.9999 0 0 0
179 1 -2.48353 8.18237 19.9983 -0.00258196 0.0319138 0.0037337
180 1 -2.34103 10.4689 19.9999 0 0 0
196 1 -0.465114 7.19214 19.8623 -0.0231048 0.0230298 -0.0104688
197 1 -1.08189 8.22758 19.9912 0.00462794 0.0309523 0.00146823
198 1 -0.244875 9.27724 19.9936 0.00450355 0.020178 0.000595612
199 1 -0.876963 10.4688 19.9999 0 0 0
200 1 -0.0953724 11.6018 19.9999 0 0 0
208 1 0.970045 7.13583 19.848 0.00165613 0.00546573 -0.00860927
209 1 1.14393 9.30255 19.992 -0.00878837 0.0117131 -5.24428e-05
210 1 1.14924 11.6018 19.9999 0 0 0
219 1 1.82166 8.21501 19.9705 0.00451316 0.0369702 -0.000605753
220 1 1.93091 10.4688 19.9999 0 0 0
236 1 3.8803 7.2056 19.9775 0.0115091 0.0185989 0.000180505
237 1 3.06516 8.22152 19.9873 -0.00210162 0.0216905 0.000129296
238 1 3.92362 9.23291 19.9978 0.000383101 0.0127902 8.38992e-05
239 1 3.39506 10.4687 19.9999 0 0 0
240 1 4.17656 11.6018 19.9999 0 0 0
248 1 5.30168 7.01527 19.9969 0.0130357 0.0162137 0.00138387
249 1 5.34371 9.25504 20.0007 -0.00452522 0.00775996 -0.000207165
250 1 5.4212 11.6017 19.9999 0 0 0
259 1 6.10584 8.08995 20.0059 0.0120569 0.025423 0.000380394
260 1 6.20335 10.4685 19.9999 0 0 0
277 1 7.54703 7.9584 20.0094 0.00546178 0.0134675 5.56219e-06
276 1 8.27414 6.67791 20.0112 0.0126988 0.0232853 0.000324225
278 1 8.34374 9.11645 20.0063 0.00459122 0.00403995 6.30178e-06
279 1 7.66711 10.4687 19.9999 0 0 0
280 1 8.44529 11.6024 19.9999 0 0 0
288 1 9.70151 6.64168 20.0087 0.00636471 0.00538791 -4.25713e-05
289 1 9.76673 9.10861 20.0045 -0.000604076 -0.00165618 8.78506e-05
290 1 9.6873 11.6101 19.9999 0 0 0
299 1 10.4535 7.84986 20.0053 0.00570099 0.00545017 3.00371e-05
300 1 10.4752 10.4755 19.9999 0 0 0
316 1 12.6473 6.74288 19.9999 0 0 0
317 1 11.9051 7.97805 19.9999 0 0 0
318 1 12.6583 9.19198 19.9999 0 0 0
319 1 11.9246 10.4937 19.9999 0 0 0
320 1 12.7709 11.5297 19.9999 0 0 0
328 1 14.0456 6.75188 19.9999 0 0 0
329 1 14.0237 9.17042 19.9999 0 0 0
330 1 13.9415 11.792 19.9999 0 0 0
8 1 -1.16947 -3.49996 27.4137 -0.0206936 -0.100837 0.432532
27 1 -2.78406 -0.337885 27.6799 -0.0566084 -0.0300778 0.42396
28 1 -1.90859 -2.3656 28.7522 -0.033234 -0.0265037 0.471571
216 1 1.40931 -1.78233 23.8002 0.0449169 -0.0624501 0.193166
7 1 0.328339 -2.93862 27.4875 -0.0132648 -0.110296 0.439265
38 1 2.90405 -0.181685 28.4956 -0.014952 0.0516839 0.450023
42 1 -4.01545 0.114053 28.2911 -0.0981469 0.0354479 0.47218
51 1 -0.406472 1.65047 27.7802 0.0255846 0.0205263 0.445157
32 1 -1.4325 2.33454 28.3384 -0.0221477 -0.0162045 0.442957
25 1 2.30475 0.859324 27.5541 0.0296779 0.0434585 0.449971
49 1 1.03398 1.60227 27.4262 0.0183763 0.00786044 0.451216
31 1 1.37708 2.72625 28.7356 0.0625187 0.0187318 0.473295
44 1 -2.56884 -1.08266 29.3907 0.00395574 0.0180809 0.477282
52 1 -1.17215 -3.21449 29.7564 0.00202537 -0.00964609 0.439257
20 1 -2.81961 -1.23854 30.7698 -0.0215286 0.0310028 0.469506
36 1 -1.17135 -3.41968 31.0634 -0.00771071 -0.00111819 0.487898
60 1 -1.9175 -1.99822 31.32 0.0443329 -0.00133355 0.530572
4 1 -3.88618 -0.385525 31.6826 0.0331099 -0.00342932 0.454642
58 1 -2.17401 -2.08184 32.8168 -0.0137192 0.000381215 0.51671
19 1 -3.17602 -1.18973 32.8508 0.00649091 -0.00879798 0.530659
34 1 -1.00599 -3.00894 33.7217 -0.0225355 0.00583601 0.487651
48 1 -0.789952 -1.87695 34.5487 -0.0236659 0.0150887 0.497856
24 1 -1.65299 -0.950016 34.6373 0.020977 -0.0712084 0.508871
43 1 -2.70996 -0.134827 33.9527 0.0125437 0.0123309 0.50003
26 1 1.68774 -2.49018 28.9285 0.01257 -0.00401197 0.476248
40 1 2.9951 -1.86681 28.9876 0.00611892 -0.00287497 0.443744
50 1 0.428001 -2.09163 30.2232 0.0191095 0.0084511 0.509213
16 1 3.00299 -1.62652 30.5951 -0.0450782 -0.0076228 0.467416
35 1 1.38803 -2.64195 30.2894 -0.0193468 0.0627058 0.453105
2 1 2.56297 -0.749363 31.2985 -0.00716805 0.0152687 0.493732
59 1 2.10133 -1.97753 31.3157 0.0060112 -0.00405322 0.477178
12 1 0.238676 -3.36881 31.8531 -0.00291409 -0.0436882 0.524438
57 1 1.45333 -1.76443 32.7633 0.0255895 -0.0169651 0.489126
11 1 0.264657 -3.44771 33.4449 0.00744888 0.000943225 0.483216
15 1 2.35469 -0.629823 32.725 -0.0323774 0.0202327 0.486504
33 1 1.07859 -2.17712 33.9153 -0.0397649 0.00582662 0.4792
46 1 1.0685 -1.26592 34.6439 0.0154567 0.0468476 0.496499
10 1 -0.106205 2.40153 29.3519 -0.00661859 -0.0282032 0.482427
18 1 -3.43436 0.711473 29.5732 -0.0544634 0.0133432 0.462591
56 1 -2.4779 1.59818 29.2044 -0.0275129 -0.00547707 0.494042
9 1 -0.111295 3.54385 30.4222 -0.0329739 0.0292482 0.524244
54 1 -1.97815 1.67558 30.4583 0.069678 -0.0510136 0.479423
3 1 -3.45494 0.901633 31.156 0.00394196 -0.022293 0.501077
30 1 -1.26033 3.21854 31.2168 0.0113986 0.0221281 0.497258
17 1 -2.41157 1.19061 31.6921 -0.0275863 0.00453958 0.507176
47 1 -1.25921 3.54939 33.0222 0.0101845 0.0124594 0.50635
41 1 -2.70513 1.14477 33.1992 0.0096359 -0.0127656 0.489279
23 1 -2.02685 2.48492 33.4369 -0.0396528 -0.0478879 0.479777
6 1 -0.369735 2.28985 34.4509 0.0341422 0.00617037 0.478708
21 1 -0.045132 3.14893 34.063 0.00853278 0.0454392 0.514924
55 1 1.96793 2.02681 30.0714 -0.0352737 0.00577331 0.442481
14 1 2.6993 0.99465 29.7411 -0.00351029 0.00649685 0.473512
1 1 3.26661 0.621433 30.7951 -0.0338236 -0.00816608 0.483575
53 1 2.33221 2.83765 31.0928 -0.00380728 0.00173234 0.542352
29 1 1.21875 3.92303 30.9487 0.0126876 0.00433561 0.484307
13 1 3.37044 1.70169 31.7261 0.0323183 0.0361461 0.496646
45 1 0.156318 4.31643 32.477 -0.0416585 0.0276797 0.491213
37 1 3.85621 1.17268 32.9223 0.0162232 -0.0380413 0.513396
39 1 2.59566 0.742685 33.7598 0.0127378 0.0311307 0.504834
22 1 1.19018 0.125299 34.1941 -0.0347897 0.018594 0.5129
5 1 0.194972 1.38034 34.0132 -0.0449466 0.012944 0.509461
