ITEM: TIMESTEP
40800
ITEM: NUMBER OF ATOMS
330
ITEM: BOX BOUNDS pp pp pp
-1.4715758017245314e+01 1.5057610017245315e+01
-1.2710055654020760e+01 1.2664508654020761e+01
-5.0001035148846022e+01 1.0000103514884636e+02
ITEM: ATOMS id type x y z vx vy vz
8 1 -1.07259 -1.00402 2.58777 0.00437284 0.00626867 -0.0356129
28 1 -1.88706 -2.0929 3.08853 -0.00150658 -0.00297245 -0.0239781
42 1 -3.10317 -0.115334 3.19074 0.000179574 0.0155359 -0.0204013
44 1 -3.03615 -1.46064 3.55497 -0.00452515 0.00287533 -0.0330631
7 1 0.278178 -0.995429 3.1089 -0.00183761 0.000527106 -0.0307404
27 1 -1.80637 0.232826 2.63957 -0.000241012 -0.00141454 -0.0214672
51 1 -1.16667 1.47102 2.93887 0.00380996 -0.000687186 -0.0289769
52 1 -1.2764 -3.14627 3.84537 0.00716677 -0.0141357 -0.0362549
20 1 -3.72812 -1.99576 4.62735 -0.0204417 0.0024295 -0.0372047
36 1 -1.943 -3.65615 5.02602 -0.00669689 -0.0109644 -0.0384022
4 1 -4.50577 -1.1186 5.39646 -0.00171856 0.00283093 -0.0366804
60 1 -3.2163 -3.0621 5.37521 -0.00774881 -0.000700962 -0.0285268
12 1 -0.981033 -3.98631 5.9738 -0.00178223 -0.010383 -0.0355653
19 1 -4.521 -1.70006 6.71866 0.00533986 -0.00730545 -0.052883
58 1 -3.59714 -2.83191 6.66827 -0.00214408 0.00303808 -0.0310884
11 1 -1.28759 -3.62227 7.33751 -0.00143118 0.00826735 -0.0460692
34 1 -2.53152 -3.16134 7.70012 0.00920455 0.00743158 -0.0367029
43 1 -4.26972 -0.711847 7.7303 0.00301589 -0.0129379 -0.0387505
33 1 -0.303811 -3.19402 8.34704 -0.00315391 0.00369254 -0.0481102
50 1 0.10691 -3.00051 4.32164 0.00424502 -0.00560561 -0.0461987
24 1 -3.25396 -0.957154 8.7137 0.00987213 0.0124161 -0.0456669
48 1 -2.43265 -2.15862 8.63997 -0.00951696 0.000479302 -0.030903
46 1 -1.03659 -2.1655 8.94879 -0.00166732 0.00841315 -0.0134595
22 1 -0.444331 -0.927473 9.17817 0.00466531 0.00400066 -0.0205624
26 1 0.854806 -2.00718 3.91609 -0.00958389 0.00897944 -0.034764
40 1 1.81049 -1.47015 4.83446 0.00916888 0.00219519 -0.0362608
16 1 2.08493 -1.99639 6.09664 0.0019554 -0.0110656 -0.0301399
35 1 0.309052 -3.57092 5.60716 0.000673054 -0.0103331 -0.03871
59 1 1.28519 -2.94917 6.48761 -0.0127811 0.00638119 -0.0355205
2 1 2.32267 -1.00402 7.15899 -0.00572818 0.00742019 -0.0317945
15 1 1.70024 -1.61118 8.23218 -0.00642853 -0.00110476 -0.0255601
57 1 1.00208 -2.79236 7.88262 0.00695547 -0.00755368 -0.0332365
39 1 0.93213 -0.668325 8.9935 -0.00156206 -0.00573592 -0.0283476
32 1 -1.67362 2.18274 4.04587 -0.00983724 -0.00548212 -0.0331184
10 1 -0.753461 2.76975 4.92573 -0.00382982 0.00670328 -0.0260051
18 1 -3.75285 0.749115 4.12967 -0.00733557 -0.00807904 -0.0356431
56 1 -3.11847 2.02222 4.47139 -0.00763763 0.00177123 -0.041152
3 1 -4.60436 0.277196 5.13008 -0.0211032 -0.00169055 -0.025797
54 1 -3.46611 2.51546 5.7359 -0.0166575 0.00810682 -0.0274525
9 1 -1.18047 3.06624 6.21379 -2.40351e-05 0.00363615 -0.0484359
17 1 -4.30181 1.27726 6.0925 0.0033865 0.00788469 -0.0527396
30 1 -2.4281 2.87538 6.61231 -0.00253896 -0.0101687 -0.0214394
29 1 -0.109496 2.82627 7.15418 -0.00305925 0.00563578 -0.0337765
47 1 -2.3245 2.38508 7.94671 -0.0151834 -0.00786127 -0.0443081
41 1 -4.16264 0.738465 7.39517 0.0121371 -0.00613993 -0.0506918
45 1 -0.925463 2.37195 8.30627 -0.0068426 0.00378869 -0.0199337
23 1 -3.24732 1.22174 8.32533 0.00677622 -0.0100311 -0.0464921
6 1 -2.58397 0.207745 8.96495 0.0105583 0.00315654 -0.0345791
5 1 -1.26094 0.287242 9.27907 -0.00556466 -0.00384816 -0.0138009
21 1 -0.374788 1.32967 8.9721 -0.00398487 -0.0103543 -0.0233862
38 1 1.94181 -0.0481959 4.55052 -0.0111034 0.00974877 -0.0307811
25 1 0.865666 0.287901 3.57685 0.0157785 -0.00863511 -0.035927
49 1 0.264108 1.55589 3.41911 0.0145079 0.00594148 -0.038404
31 1 0.572155 2.49033 4.48142 0.000759735 -0.0104686 -0.0439052
14 1 2.15687 0.952005 5.46974 0.00211303 0.00293972 -0.0310688
55 1 1.64708 2.2432 5.459 0.00828813 0.00229199 -0.03409
1 1 2.39387 0.417903 6.8397 -0.00828257 -0.00538851 -0.038083
53 1 1.21727 2.41215 6.82753 0.00163291 0.0136794 -0.0249089
13 1 1.67086 1.34215 7.60759 -0.00787395 -0.0117148 -0.0273132
37 1 0.866234 0.740445 8.64391 -0.00152853 -0.00789473 -0.0252653
61 1 -13.6674 -11.9461 19.9999 0 0 0
62 1 -13.1228 -10.6724 19.9999 0 0 0
63 1 -13.7825 -9.34696 19.9999 0 0 0
64 1 -13.0772 -8.00396 19.9999 0 0 0
65 1 -13.7542 -6.79742 19.9999 0 0 0
81 1 -11.507 -10.5408 19.9999 0 0 0
82 1 -11.5331 -8.01671 19.9999 0 0 0
91 1 -10.7591 -11.6424 19.9999 0 0 0
92 1 -10.8512 -9.21575 19.7353 0.00567973 -0.00819691 -0.00910413
93 1 -10.8396 -6.79802 20.1756 0.00532009 -0.00466468 0.00208912
101 1 -9.52473 -11.6468 19.9999 0 0 0
102 1 -8.74136 -10.5124 19.9999 0 0 0
103 1 -9.41838 -9.23021 19.6873 -0.010177 -0.0104567 0.00672552
104 1 -8.67586 -7.97228 19.5591 -0.00155473 -0.0069844 0.0063479
105 1 -9.40397 -6.75585 19.7054 0.0103522 -0.00590269 0.00452042
121 1 -7.27873 -10.5146 19.9999 0 0 0
122 1 -7.2849 -7.941 19.3839 -0.0026252 0.00494969 -0.017688
131 1 -6.50232 -11.6488 19.9999 0 0 0
132 1 -6.61082 -9.14065 19.8566 -0.00695561 -0.00267828 -0.00399243
141 1 -5.25854 -11.6473 19.9999 0 0 0
142 1 -4.47674 -10.5145 19.9999 0 0 0
143 1 -5.22252 -9.16041 19.8824 0.0081942 -0.0180066 -0.00700704
144 1 -4.55228 -7.94565 19.2434 0.0209602 0.000490626 0.00226846
161 1 -3.01281 -10.5144 19.9999 0 0 0
162 1 -3.12638 -8.05042 19.0247 0.00903758 0.00657988 0.00350868
171 1 -2.23133 -11.6474 19.9999 0 0 0
172 1 -2.36788 -9.35462 19.2186 0.00649658 -0.00400585 0.00497149
181 1 -0.986751 -11.6474 19.9999 0 0 0
182 1 -0.205108 -10.5143 19.9999 0 0 0
183 1 -0.908568 -9.31265 19.2653 0.0020023 -0.0116513 -0.00152857
184 1 -0.280373 -8.07734 18.842 -0.00195502 0.00455936 0.0134949
133 1 -6.56941 -6.74244 18.8812 0.014695 -0.0172186 -0.00436184
145 1 -5.20921 -6.83032 18.5811 0.0161248 -0.00224163 0.00974541
173 1 -2.38572 -6.85963 18.5322 0.00580991 0.00925107 0.027919
185 1 -0.954171 -6.87774 18.3007 -0.00339471 0.013811 0.0193906
201 1 1.25901 -10.5143 19.9999 0 0 0
202 1 1.12629 -8.06687 19.2808 -0.00825648 0.0113016 0.0153563
211 1 2.0406 -11.6474 19.9999 0 0 0
212 1 1.90943 -9.1783 19.5698 -0.009036 0.00836297 0.000848792
221 1 3.28523 -11.6473 19.9999 0 0 0
222 1 4.06705 -10.5143 19.9999 0 0 0
223 1 3.3535 -9.1816 19.6411 0.00289199 -0.00427283 0.00230169
224 1 4.07879 -7.97984 19.5024 -0.0140566 -0.00552435 -0.00606283
241 1 5.53108 -10.5143 19.9999 0 0 0
242 1 5.51243 -8.0229 19.6045 -0.00606642 -0.00495765 0.000288935
251 1 6.31174 -11.6474 19.9999 0 0 0
252 1 6.21848 -9.22334 20.0223 0.000957379 -0.00516019 -0.00618241
261 1 7.55524 -11.6498 19.9999 0 0 0
253 1 6.15024 -6.73897 19.2625 0.00721442 -0.0103688 0.00717464
225 1 3.31496 -6.78418 19.0004 0.0162068 -0.00281566 0.00941712
213 1 1.92256 -6.85683 18.9298 -3.00486e-05 0.000405267 0.0232703
265 1 7.57595 -6.79766 19.286 -0.0072266 0.00692088 -0.00377058
263 1 7.60609 -9.26064 19.9183 -0.00218607 -0.00276802 0.000204119
262 1 8.33779 -10.5154 19.9999 0 0 0
264 1 8.26597 -8.06948 19.5256 -0.00742961 0.00715567 0.0032126
281 1 9.79556 -10.5245 19.9999 0 0 0
282 1 9.70856 -7.96843 19.8286 -0.00677181 -0.00840314 0.000150575
291 1 10.5816 -11.6418 19.9999 0 0 0
292 1 10.5326 -9.18207 19.8412 0.01273 -0.008324 -0.00648834
293 1 10.5249 -6.8015 19.6379 -0.0064827 -0.00843673 0.000638815
301 1 11.8019 -11.7522 19.9999 0 0 0
302 1 12.7161 -10.5156 19.9999 0 0 0
303 1 11.8934 -9.22642 19.9999 0 0 0
304 1 12.655 -8.00627 19.9999 0 0 0
305 1 11.8992 -6.77596 19.9999 0 0 0
321 1 14.087 -10.4984 19.9999 0 0 0
322 1 14.0714 -8.01298 19.9999 0 0 0
66 1 -13.0658 -5.54976 19.9999 0 0 0
67 1 -13.7179 -4.30197 19.9999 0 0 0
68 1 -13.0406 -3.0891 19.9999 0 0 0
69 1 -13.6883 -1.86008 19.9999 0 0 0
70 1 -13.0424 -0.636745 19.9999 0 0 0
83 1 -11.5387 -5.54743 19.9999 0 0 0
84 1 -11.5566 -3.09089 19.9999 0 0 0
85 1 -11.5625 -0.637245 19.9999 0 0 0
94 1 -10.9046 -4.31621 19.6038 -0.00019167 0.0159325 -0.00845198
95 1 -10.9345 -1.81955 19.6896 -0.00313452 0.0107981 -0.00282967
106 1 -8.8701 -5.55685 19.1611 0.00637076 -0.0172654 0.0104553
107 1 -9.57703 -4.27163 19.0477 0.00405858 -0.012181 0.00573515
108 1 -8.90226 -2.97704 18.858 -0.000960521 0.00821134 -0.00425846
109 1 -9.64998 -1.75076 19.076 0.00922436 0.00808388 -0.0187681
110 1 -8.95021 -0.594631 18.8589 -0.0169204 0.00723518 -0.0256921
123 1 -7.41345 -5.53635 18.6762 0.0063698 0.00630746 -9.83843e-05
124 1 -7.52331 -3.05667 18.5542 0.00329746 -0.00684125 -0.0116844
125 1 -7.55951 -0.607989 18.5352 -0.00502107 0.00271363 -0.00751833
186 1 -0.208575 -5.59425 18.3995 0.0119601 0.00721932 0.0199334
134 1 -6.72793 -4.28103 18.344 -0.0109041 -0.0102858 0.00539712
135 1 -6.70779 -1.82392 18.5436 -0.00570912 -0.00126457 0.00161587
146 1 -4.53052 -5.5033 18.2266 0.00277506 -0.00396228 -0.00602657
147 1 -5.24958 -4.24683 18.1445 -0.00649958 -0.00270488 0.00483633
163 1 -3.05789 -5.5387 18.2858 0.00467276 0.0106127 0.00769325
148 1 -4.45696 -3.01487 18.3206 0.0125929 -0.0131694 -0.000886849
149 1 -5.33399 -1.76912 18.5724 -0.00834663 -0.00315838 -0.00472326
174 1 -2.31143 -4.39028 18.4187 -0.0106863 0.000683264 -0.00120993
164 1 -3.07193 -3.0777 18.4518 0.00429468 -0.00148444 0.00247137
187 1 -0.86743 -4.35482 18.6887 -0.000184339 -0.000173538 0.016267
150 1 -4.58992 -0.517249 18.7171 0.00682341 0.000201397 -0.0110563
175 1 -2.40693 -1.80282 18.83 0.00311459 -0.0183561 0.00993568
165 1 -3.16944 -0.545984 18.908 0.0043347 -0.00600013 -0.00289898
189 1 -1.00909 -1.8818 19.1868 0.00237121 -0.00913335 0.0270763
188 1 -0.298245 -3.16481 19.1309 0.00355227 0.00430643 0.0246341
190 1 -0.308199 -0.681065 19.5215 0.0128838 0.00496426 0.0292916
243 1 5.50179 -5.56128 18.8083 0.00348176 -0.0190418 0.0101217
203 1 1.26037 -5.61532 18.5015 0.00580334 0.00531707 0.0182011
254 1 6.3147 -4.32676 18.7177 0.000984361 0.00198202 0.00462721
226 1 4.04704 -5.54193 18.8202 0.00426535 -0.0134286 0.00490395
227 1 3.44999 -4.2774 18.7592 0.0217021 0.000465377 0.0105832
244 1 5.64815 -3.00972 18.8737 0.00724856 -0.00255332 0.0035302
214 1 1.96214 -4.37463 18.8149 -0.00364293 -0.00640085 0.0271797
255 1 6.4233 -1.79714 18.9537 0.00852156 0.00766866 -0.00103001
228 1 4.2019 -3.04846 18.9962 0.0157596 0.0085355 0.0125279
245 1 5.63143 -0.590713 19.1672 0.0195181 -0.00869216 0.00123132
229 1 3.40825 -1.87068 19.3281 0.0187379 -0.00614813 0.0270492
230 1 4.18146 -0.689015 19.4965 0.0077556 0.00818408 0.022709
204 1 1.23455 -3.20358 19.2872 0.00593761 0.00198124 0.0163107
215 1 1.92238 -1.93944 19.558 0.0159613 -0.0118915 0.0195409
205 1 1.16627 -0.6985 19.7338 0.00976485 0.00486785 0.0189509
269 1 7.847 -1.73743 18.8999 0.00397411 -0.00463168 0.0142599
267 1 7.77329 -4.31458 19.0505 0.00136742 -0.00176801 -0.000875796
283 1 9.83626 -5.49527 19.5132 -0.00215704 -0.00645209 -0.00503229
284 1 9.81278 -2.982 19.3484 -0.00476943 0.0010801 0.00674601
285 1 9.97636 -0.548585 19.0501 0.0047889 0.00324336 -0.0112801
294 1 10.4753 -4.25856 19.7233 -0.00814128 -0.000146268 -0.0129691
295 1 10.5353 -1.75332 19.5598 -0.00530893 -0.0134652 0.00207281
306 1 12.6496 -5.55341 19.9999 0 0 0
307 1 11.9041 -4.32686 19.9999 0 0 0
308 1 12.647 -3.09734 19.9999 0 0 0
309 1 11.9037 -1.86828 19.9999 0 0 0
310 1 12.6457 -0.637745 19.9999 0 0 0
323 1 14.0539 -5.56516 19.9999 0 0 0
324 1 14.0472 -3.10129 19.9999 0 0 0
325 1 14.0438 -0.638188 19.9999 0 0 0
268 1 8.46237 -3.03951 18.9181 0.00990882 -0.0062769 0.00202659
270 1 8.6345 -0.539099 18.7983 0.00418466 0.00860916 -0.0176537
266 1 8.41355 -5.59974 19.2133 -0.0023376 0.00188825 -0.000181447
71 1 -13.6826 0.591886 19.9999 0 0 0
72 1 -13.0424 1.82079 19.9999 0 0 0
73 1 -13.6895 3.04359 19.9999 0 0 0
74 1 -13.0413 4.27397 19.9999 0 0 0
75 1 -13.7195 5.48914 19.9999 0 0 0
86 1 -11.5623 1.82169 19.9999 0 0 0
87 1 -11.5564 4.27485 19.9999 0 0 0
96 1 -10.9655 0.580971 19.5937 0.00425931 -0.00134013 -0.0108618
97 1 -10.828 3.035 19.7705 -0.00766039 0.00436198 0.00265337
98 1 -10.8251 5.51204 19.9442 -0.00591582 -0.00375158 -0.00205839
111 1 -9.6853 0.655838 19.0456 -0.0253317 -0.00428123 -0.0307499
112 1 -8.98592 1.82342 18.6688 0.00397341 -0.00694782 -0.0227769
113 1 -9.58189 3.03781 19.1386 0.00413873 0.0033541 0.00276276
114 1 -8.81745 4.27018 19.1219 0.00764329 -0.00199918 0.0150927
115 1 -9.46163 5.48796 19.4617 0.0191098 0.00721158 -0.00167887
127 1 -7.48048 4.21901 18.5964 0.00518394 0.0134259 0.0153398
126 1 -7.56364 1.85337 18.4584 -0.00909381 -0.00179799 -0.00689098
138 1 -6.72416 5.42161 18.5082 0.00899533 0.00547481 0.000153382
136 1 -6.81635 0.5868 18.4989 -0.00208277 0.00273362 -0.0221546
178 1 -2.42301 5.55702 18.3305 0.0165229 -0.00632227 0.00486135
195 1 -1.00151 5.60962 18.6262 0.00473628 -0.0110942 0.00986389
155 1 -5.31558 5.47786 18.2736 0.00742444 0.00561241 0.00426467
137 1 -6.78412 2.99489 18.521 0.000146907 0.00398863 -0.00111328
153 1 -5.29586 3.01619 18.4447 -0.0128103 0.00171107 -0.00453969
154 1 -4.57263 4.232 18.2809 0.00583699 -0.00337513 0.00408015
167 1 -3.06683 4.26408 18.3081 0.00395321 0.00712636 -0.00056975
152 1 -4.5968 1.83605 18.3997 -0.0142481 0.0133363 -0.00651621
151 1 -5.3999 0.637937 18.5767 -0.00577824 0.000827074 -0.00364518
194 1 -0.317203 4.3542 18.8051 0.0110804 0.00508662 0.0187056
177 1 -2.42747 3.00003 18.7636 -0.00377896 0.00896192 0.00712212
166 1 -3.16499 1.81334 18.6295 0.00448994 -0.00378894 0.0126032
193 1 -0.963481 2.99539 18.9265 0.0108005 -0.00611109 0.0168858
176 1 -2.41855 0.638123 19.0177 0.000984502 -0.00525313 0.0232711
191 1 -0.985608 0.491406 19.2468 0.0139389 0.00358271 0.0279729
192 1 -0.246003 1.77217 19.1942 0.0287653 -0.00831941 0.0218298
258 1 6.20329 5.48327 18.8075 0.0136862 -0.000756981 0.00171465
235 1 3.47266 5.40163 18.9226 0.018324 -0.0112206 0.00925671
218 1 2.02475 5.5821 18.9061 -0.00755459 0.00315976 0.0246371
257 1 6.3158 2.96566 18.6507 0.00395423 -0.00581248 0.00981371
247 1 5.52318 4.18851 18.6238 -0.00812045 0.00533587 -0.00168543
234 1 4.07579 4.12853 18.8355 0.00695731 0.00125127 0.00293044
207 1 1.12976 4.37474 19.1192 0.00616779 -0.0117008 0.0241619
246 1 5.59165 1.84067 19.0438 0.0110737 0.00639625 0.00674827
233 1 3.2521 3.0009 19.2493 0.0276817 0.00356169 0.017262
232 1 4.16469 1.85067 19.4919 0.0094993 0.0130143 0.00949584
256 1 6.3394 0.587848 18.9323 0.0120075 -0.00346755 0.00117189
217 1 1.82435 2.99664 19.3894 0.0071412 -0.000603303 0.0330727
231 1 3.43924 0.586555 19.6951 0.020419 -0.0117762 0.0159623
206 1 1.19806 1.76144 19.4469 0.0130295 0.00406292 0.0201462
216 1 1.9825 0.530746 19.6644 0.0163119 0.00203411 0.0265913
271 1 7.80408 0.649828 18.6875 0.0100489 0.00256889 0.00539584
273 1 7.81216 2.9838 18.7162 -0.00297458 0.000125604 0.00835553
275 1 7.64775 5.4972 19.0134 -0.0039867 0.00819564 0.00684417
286 1 9.93687 1.8125 19.1367 0.0151338 0.00573797 -0.00607721
287 1 9.70351 4.27833 19.4939 -0.0186361 0.00194648 -0.008653
296 1 10.7528 0.63718 19.2553 0.00564563 -0.0107039 0.00084477
297 1 10.4944 3.08467 19.6487 -0.00357957 0.00927479 0.00316174
298 1 10.4989 5.42577 19.7686 -0.00245715 -0.00306903 -0.0033592
311 1 11.9034 0.592385 19.9999 0 0 0
312 1 12.6457 1.82255 19.9999 0 0 0
313 1 11.9038 3.05326 19.9999 0 0 0
314 1 12.6466 4.28301 19.9999 0 0 0
315 1 11.9041 5.51379 19.9999 0 0 0
326 1 14.0439 1.82305 19.9999 0 0 0
327 1 14.0468 4.28589 19.9999 0 0 0
272 1 8.559 1.72891 18.8797 -0.0053799 0.00632787 -0.00102882
274 1 8.33558 4.24267 18.9968 0.00721483 0.00234947 0.0155117
76 1 -13.0678 6.73987 19.9999 0 0 0
77 1 -13.743 7.99662 19.9999 0 0 0
78 1 -13.076 9.22053 19.9999 0 0 0
79 1 -13.6781 10.6114 19.9999 0 0 0
80 1 -13.0646 11.9529 19.9999 0 0 0
88 1 -11.5395 6.7281 19.9999 0 0 0
89 1 -11.5535 9.18478 19.9999 0 0 0
90 1 -11.7099 11.6077 19.9999 0 0 0
99 1 -10.7862 7.97455 19.8377 0.00484262 -0.00113844 0.00360566
100 1 -10.9027 10.4758 19.9999 0 0 0
116 1 -8.68834 6.69344 19.4603 0.0180098 -0.00960604 0.0092301
117 1 -9.31476 7.95316 19.5657 -0.00564625 0.00302262 -0.00547602
118 1 -8.66229 9.23681 19.4853 0.00458372 -0.00528077 -0.0107554
119 1 -9.37207 10.4804 19.9999 0 0 0
120 1 -8.62688 11.6228 19.9999 0 0 0
130 1 -7.38724 11.6024 19.9999 0 0 0
128 1 -7.33528 6.57094 19.0913 0.0070269 0.00236623 0.000567557
129 1 -7.20164 9.14019 19.6806 0.00234524 0.00193761 -0.014573
139 1 -6.61343 7.74091 19.5168 0.00587109 0.0113606 -0.0148341
140 1 -6.60892 10.469 19.9999 0 0 0
157 1 -5.22432 7.86976 19.4492 0.00270441 0.0109846 0.00645412
158 1 -4.50722 9.13996 19.6252 0.000441273 0.00206958 0.000337922
159 1 -5.14663 10.4689 19.9999 0 0 0
160 1 -4.36691 11.6023 19.9999 0 0 0
169 1 -3.07629 9.21862 19.3902 -0.000268543 0.0157098 -0.00394605
170 1 -3.12269 11.6018 19.9999 0 0 0
179 1 -2.51219 8.05909 18.816 0.00297644 0.00782003 0.00558067
180 1 -2.34103 10.4689 19.9999 0 0 0
197 1 -1.02415 8.02185 18.993 -0.0041903 -0.0109386 0.0185306
198 1 -0.32207 9.2044 19.4457 -0.000972005 0.00641361 0.00822047
199 1 -0.876963 10.4688 19.9999 0 0 0
200 1 -0.0953724 11.6018 19.9999 0 0 0
156 1 -4.58685 6.6999 18.7737 0.00298196 -0.00356419 0.0111123
168 1 -3.20635 6.72379 18.5204 0.00160282 -0.00360585 0.00335768
196 1 -0.236216 6.85769 18.7546 0.00459873 0.000699459 0.0229636
209 1 1.09507 9.1872 19.667 0.00871994 0.00626017 0.0133268
210 1 1.14924 11.6018 19.9999 0 0 0
219 1 1.90892 8.08668 19.2957 -0.0190384 0.00494113 -0.00576135
220 1 1.93091 10.4688 19.9999 0 0 0
237 1 3.31492 7.96308 19.5676 -0.00243693 0.00549025 0.00489333
238 1 4.13008 9.13415 19.7588 -0.00405714 0.0149276 -0.0167332
239 1 3.39506 10.4687 19.9999 0 0 0
240 1 4.17656 11.6018 19.9999 0 0 0
249 1 5.53269 9.08065 19.7263 -0.0109339 0.0090011 -0.00312292
250 1 5.4212 11.6017 19.9999 0 0 0
259 1 6.2745 7.91615 19.521 -0.0120454 0.00117542 -0.00405656
260 1 6.20335 10.4685 19.9999 0 0 0
248 1 5.51699 6.66309 19.2319 0.000111321 0.00325459 -0.00122597
236 1 4.0934 6.70337 19.2738 0.000977207 0.0134985 0.0158303
208 1 1.2139 6.80539 18.9943 -0.0137593 0.00480858 0.0292403
277 1 7.75173 7.97035 19.6297 -0.0131122 0.000700592 0.00502817
276 1 8.35158 6.66785 19.4172 0.004708 0.00278993 0.00593112
278 1 8.34134 9.2153 19.7166 -0.00461696 -0.00783435 -0.006724
279 1 7.66711 10.4687 19.9999 0 0 0
280 1 8.44529 11.6024 19.9999 0 0 0
288 1 9.80364 6.64537 19.6211 -0.00240143 0.00848613 0.0019476
289 1 9.75709 9.18635 19.814 0.00935964 0.00257357 0.002367
290 1 9.6873 11.6101 19.9999 0 0 0
299 1 10.5053 7.89318 19.7794 -0.00282665 -0.00988341 0.00302009
300 1 10.4752 10.4755 19.9999 0 0 0
316 1 12.6473 6.74288 19.9999 0 0 0
317 1 11.9051 7.97805 19.9999 0 0 0
318 1 12.6583 9.19198 19.9999 0 0 0
319 1 11.9246 10.4937 19.9999 0 0 0
320 1 12.7709 11.5297 19.9999 0 0 0
328 1 14.0456 6.75188 19.9999 0 0 0
329 1 14.0237 9.17042 19.9999 0 0 0
330 1 13.9415 11.792 19.9999 0 0 0
