ITEM: TIMESTEP
46900
ITEM: NUMBER OF ATOMS
330
ITEM: BOX BOUNDS pp pp pp
-1.4715758017245314e+01 1.5057610017245315e+01
-1.2710055654020760e+01 1.2664508654020761e+01
-5.0001035148846022e+01 1.0000103514884636e+02
ITEM: ATOMS id type x y z vx vy vz
8 1 -0.971684 -0.891428 -1.64361 0.00239723 -0.00624786 -0.0191361
28 1 -1.71501 -2.02504 -1.20676 0.0110405 -0.00082842 -0.0274689
44 1 -2.94981 -1.46502 -0.826128 -0.0232741 0.00277709 -0.0261111
52 1 -1.35779 -3.17283 -0.37392 -0.00381089 0.0022475 -0.0343388
20 1 -3.66878 -1.9441 0.303042 -0.0135732 -0.00170055 -0.0305806
50 1 0.00261908 -3.03827 0.168479 0.00589365 -0.0121977 -0.0299552
36 1 -2.07768 -3.64459 0.709475 -0.00330777 0.000970146 -0.0336439
4 1 -4.52239 -1.13208 1.11315 -0.00131379 -0.00688886 -0.034545
60 1 -3.26098 -3.0898 1.01449 -0.00574513 -0.00678051 -0.0312213
12 1 -1.10552 -3.95475 1.70334 -0.000697491 4.63602e-05 -0.0517942
19 1 -4.38338 -1.65425 2.44552 -0.00138762 -0.000565449 -0.04253
58 1 -3.6875 -2.97172 2.33261 -0.00731522 0.0131257 -0.0319317
11 1 -1.54917 -3.73159 3.03752 -0.00212182 0.00118749 -0.0384156
35 1 0.320807 -3.7584 1.40865 7.59855e-05 -0.0063096 -0.0361955
7 1 0.40929 -0.886645 -1.3113 0.0160824 0.0150997 -0.0335707
26 1 0.584565 -1.79635 -0.215138 -0.00953197 -0.00457028 -0.0215602
40 1 1.52625 -1.3783 0.728787 0.00816865 -0.0045614 -0.0259053
16 1 1.80586 -1.89243 2.0017 -0.0014905 -0.000362493 -0.0331806
59 1 1.27272 -3.20458 2.295 -0.00988801 -4.12319e-05 -0.0435999
2 1 2.09551 -1.0784 3.18658 -0.0150667 0.00288766 -0.0368219
42 1 -2.88473 -0.012009 -1.00055 0.00851039 -0.00360301 -0.0227659
27 1 -1.66231 0.32263 -1.62495 -0.00486398 -0.00240452 -0.0220816
51 1 -1.06399 1.51675 -1.1414 0.0135963 -0.000981837 -0.0197766
32 1 -1.80749 2.19432 -0.114569 -0.00045231 0.00950511 -0.0236396
18 1 -3.69025 0.664423 -0.0225926 -0.0180758 0.00199991 -0.0360146
10 1 -0.900994 2.72035 0.854214 -0.0113774 0.0228399 -0.0197203
56 1 -3.0638 1.90178 0.425869 -0.00437459 -0.00440546 -0.035342
3 1 -4.54165 0.283303 0.979683 -0.0196345 0.00504585 -0.0426712
54 1 -3.70396 2.25429 1.7184 -0.0146008 -0.00332875 -0.0359279
17 1 -4.53903 1.20439 2.04789 0.000860502 -0.00270732 -0.0345221
9 1 -1.30902 3.01875 2.15671 -0.000424688 -0.00429292 -0.0418627
30 1 -2.70485 2.77059 2.5959 0.0079085 -0.00682756 -0.0387351
29 1 -0.390264 2.80723 3.27526 -0.00543374 -0.00121165 -0.0325023
38 1 1.77228 -0.017735 0.465701 -0.000669207 0.0058765 -0.0414505
25 1 1.08566 0.270602 -0.766128 0.000349255 0.0129196 -0.0349143
49 1 0.291794 1.55314 -0.638354 0.00906535 -0.00641752 -0.0366572
31 1 0.431929 2.32099 0.521028 0.00662985 -0.00369438 -0.0308776
14 1 2.08882 0.855555 1.5848 0.0103572 0.00292354 -0.0272855
55 1 1.39445 2.14531 1.65109 -0.000465732 -0.00291877 -0.0249736
1 1 2.20128 0.317109 2.96299 0.00576086 0.00247622 -0.0329221
53 1 0.900655 2.3458 2.99412 -0.0142688 -0.00717574 -0.0260925
34 1 -2.84126 -3.14485 3.37384 0.00199793 0.0036143 -0.0250326
43 1 -4.5542 -0.814926 3.6202 0.00211976 0.0118349 -0.0444292
33 1 -0.609507 -3.17279 4.05804 0.00283074 0.0038277 -0.0318148
24 1 -3.58658 -1.18651 4.60546 0.0122506 -0.00500902 -0.0342887
48 1 -2.90784 -2.4425 4.65766 -0.00224373 -0.00498292 -0.0564812
46 1 -1.50817 -2.3618 4.949 0.00129765 -0.00754091 -0.0345098
22 1 -0.887253 -1.13226 5.38626 0.0217136 -0.00619229 -0.0295541
15 1 1.21055 -1.63936 4.14828 -0.016453 0.00188709 -0.0238013
57 1 0.790429 -2.92406 3.66026 -0.00336793 -0.00817084 -0.0265966
39 1 0.448861 -0.751611 4.98089 -0.00644846 -0.000140125 -0.0328462
47 1 -2.72265 2.2457 4.00334 -0.00593859 -0.00841592 -0.0386162
41 1 -4.52998 0.606938 3.37069 0.00575491 -0.00573857 -0.0404711
45 1 -1.33668 2.27916 4.308 0.00572284 -0.0133425 -0.0396424
23 1 -3.50481 1.00339 4.29801 0.00582872 -0.00686463 -0.048077
6 1 -3.05664 -0.0554725 5.1511 -0.00347659 -0.00107376 -0.0379052
5 1 -1.73958 0.0366023 5.46172 -0.00908409 0.0143689 -0.0344325
21 1 -0.947058 1.12214 4.92193 -0.0088946 -0.00288061 -0.0335214
13 1 1.40939 1.17687 3.76078 -0.0137217 0.00552895 -0.0443695
37 1 0.282792 0.568381 4.47911 0.0102612 -0.00380459 -0.0404687
61 1 -13.6674 -11.9461 19.9999 0 0 0
62 1 -13.1228 -10.6724 19.9999 0 0 0
63 1 -13.7825 -9.34696 19.9999 0 0 0
64 1 -13.0772 -8.00396 19.9999 0 0 0
65 1 -13.7542 -6.79742 19.9999 0 0 0
81 1 -11.507 -10.5408 19.9999 0 0 0
82 1 -11.5331 -8.01671 19.9999 0 0 0
91 1 -10.7591 -11.6424 19.9999 0 0 0
92 1 -10.8164 -9.24794 19.804 -0.00996758 0.00120447 0.0141071
93 1 -10.8542 -6.78572 19.8353 0.000929628 0.00752951 -0.00165848
101 1 -9.52473 -11.6468 19.9999 0 0 0
102 1 -8.74136 -10.5124 19.9999 0 0 0
103 1 -9.46107 -9.22744 19.6704 0.0106913 -0.00521037 0.0066622
104 1 -8.72978 -8.0356 19.7588 -0.00103248 0.00342882 0.00228727
105 1 -9.38299 -6.7737 19.741 0.00751738 0.00573783 -0.00625453
121 1 -7.27873 -10.5146 19.9999 0 0 0
122 1 -7.27212 -8.00118 19.8711 0.00638903 0.00345022 0.00880221
131 1 -6.50232 -11.6488 19.9999 0 0 0
132 1 -6.55545 -9.22417 20.0273 -0.00341554 0.000318863 0.00274238
141 1 -5.25854 -11.6473 19.9999 0 0 0
142 1 -4.47674 -10.5145 19.9999 0 0 0
143 1 -5.19824 -9.21463 20.2701 -0.0091733 0.00236267 0.00412881
144 1 -4.47384 -8.01828 20.614 0.00739964 -0.00719677 0.0225787
161 1 -3.01281 -10.5144 19.9999 0 0 0
162 1 -3.05149 -8.02965 20.6472 -0.0117264 0.00213438 0.0119936
171 1 -2.23133 -11.6474 19.9999 0 0 0
172 1 -2.34073 -9.24392 20.1741 -1.46222e-05 0.00821226 0.0181796
181 1 -0.986751 -11.6474 19.9999 0 0 0
182 1 -0.205108 -10.5143 19.9999 0 0 0
183 1 -0.901638 -9.23246 20.1236 -0.00328908 0.00537007 0.000554431
184 1 -0.198802 -8.09298 20.6315 -0.012153 -0.00355596 0.00113021
133 1 -6.5122 -6.80819 19.7623 -0.0112092 0.00140928 0.019968
145 1 -5.07315 -6.79261 20.1359 -0.00804457 -0.0001209 0.0341213
173 1 -2.30298 -6.75008 20.7063 -0.00353204 -0.00433472 0.0102415
185 1 -0.873022 -6.84668 20.8608 0.00402032 -0.00857584 0.00206172
201 1 1.25901 -10.5143 19.9999 0 0 0
202 1 1.24422 -8.05786 20.7635 -0.00146661 0.00530414 0.00362831
211 1 2.0406 -11.6474 19.9999 0 0 0
212 1 1.93888 -9.3485 20.3764 0.00999918 -6.41511e-05 0.00739363
221 1 3.28523 -11.6473 19.9999 0 0 0
222 1 4.06705 -10.5143 19.9999 0 0 0
223 1 3.37386 -9.28009 20.4623 -0.00703241 -0.0073474 0.0175853
224 1 4.09087 -8.01918 20.4063 0.00338281 0.00441092 0.0200722
241 1 5.53108 -10.5143 19.9999 0 0 0
242 1 5.5526 -7.94301 20.0476 -0.00904694 -0.0034981 0.0250548
251 1 6.31174 -11.6474 19.9999 0 0 0
252 1 6.28261 -9.1968 20.0498 0.00312283 0.00287582 0.00290926
261 1 7.55524 -11.6498 19.9999 0 0 0
253 1 6.19122 -6.74074 20.0679 -0.00529945 -0.0119092 0.0154966
225 1 3.42877 -6.84673 20.7646 -0.00693483 0.00106632 0.015847
213 1 1.95818 -6.88234 20.9507 0.00664393 0.00348847 0.00465553
265 1 7.59704 -6.78606 19.8025 0.00389552 -0.0130261 0.00675774
263 1 7.63417 -9.26678 20.005 0.0133986 -0.00195347 0.00118974
262 1 8.33779 -10.5154 19.9999 0 0 0
264 1 8.33538 -8.02399 19.8114 0.00595862 -0.0150523 0.00993534
281 1 9.79556 -10.5245 19.9999 0 0 0
282 1 9.75695 -8.0529 19.8129 0.0201754 0.00136274 -0.00388444
291 1 10.5816 -11.6418 19.9999 0 0 0
292 1 10.5232 -9.29687 19.8045 0.000702035 0.0115191 -0.000452552
293 1 10.4616 -6.75566 19.7438 0.00670469 -0.00372985 -0.00780464
301 1 11.8019 -11.7522 19.9999 0 0 0
302 1 12.7161 -10.5156 19.9999 0 0 0
303 1 11.8934 -9.22642 19.9999 0 0 0
304 1 12.655 -8.00627 19.9999 0 0 0
305 1 11.8992 -6.77596 19.9999 0 0 0
321 1 14.087 -10.4984 19.9999 0 0 0
322 1 14.0714 -8.01298 19.9999 0 0 0
66 1 -13.0658 -5.54976 19.9999 0 0 0
67 1 -13.7179 -4.30197 19.9999 0 0 0
68 1 -13.0406 -3.0891 19.9999 0 0 0
69 1 -13.6883 -1.86008 19.9999 0 0 0
70 1 -13.0424 -0.636745 19.9999 0 0 0
83 1 -11.5387 -5.54743 19.9999 0 0 0
84 1 -11.5566 -3.09089 19.9999 0 0 0
85 1 -11.5625 -0.637245 19.9999 0 0 0
94 1 -10.8234 -4.29688 19.8681 -0.0064773 -0.00681691 0.0116718
95 1 -10.7548 -1.82238 20.0914 0.0110781 0.0073279 -0.0148488
106 1 -8.59939 -5.65468 19.4564 0.00165507 0.00341732 0.00130304
107 1 -9.33878 -4.45145 19.504 -0.00417614 0.000471125 0.0261233
108 1 -8.61825 -3.14896 19.6323 0.0105952 -0.00821702 0.0242888
109 1 -9.3188 -1.91863 19.9241 0.00196163 -0.00604885 -0.000433118
110 1 -8.51079 -0.66169 20.0782 0.0195054 0.0105206 0.0118908
123 1 -7.08892 -5.66426 19.3422 0.00747336 -0.00563167 0.0200117
124 1 -7.13508 -3.09393 19.6777 0.00211428 -0.000238437 0.0200672
125 1 -7.02918 -0.656652 19.9958 -0.00132312 -0.00441759 0.0364991
186 1 -0.250116 -5.56502 21.1728 -0.00743597 -0.00973869 0.0150816
134 1 -6.42456 -4.34222 19.2941 0.00349256 -0.00885872 0.0104169
135 1 -6.30154 -1.89967 19.8432 -0.0154929 -0.00951494 0.0408099
146 1 -4.42608 -5.57485 20.1115 -0.00658116 0.00157344 0.00596588
147 1 -5.0696 -4.30943 19.5844 0.00350079 -0.00061289 0.0236136
163 1 -3.03163 -5.50355 20.4634 -0.0137636 -0.00287872 0.00895931
148 1 -4.30499 -3.07816 19.5432 0.01135 -0.00920743 0.0174879
149 1 -4.9348 -1.81051 19.4944 -0.0114818 -0.0152069 0.0148291
174 1 -2.2625 -4.32421 20.2397 -0.00460366 0.000647358 0.00608932
164 1 -2.83423 -3.01087 19.8692 0.00673723 0.00200555 0.012344
187 1 -0.877062 -4.40114 20.7617 -0.015757 0.00398043 0.0135016
150 1 -4.21319 -0.580908 19.1807 -0.0246802 0.00485203 0.03723
175 1 -2.16728 -1.77761 19.7871 -0.000255823 0.0185748 0.013329
165 1 -2.8098 -0.581434 19.1597 -0.019506 0.00457387 0.00331605
189 1 -0.861207 -1.71254 20.2064 -0.00329387 0.000198065 0.0032138
188 1 -0.356095 -3.01538 20.5909 -0.00256436 0.0086082 0.00388189
190 1 -0.0108505 -0.615092 20.0123 -0.0157092 0.00979199 0.00125664
243 1 5.43466 -5.55024 20.2207 0.00251766 0.000804593 0.0123338
203 1 1.18253 -5.65931 21.0428 -0.018084 -0.00232697 0.0125524
254 1 6.09394 -4.3951 20.0126 -0.00143133 0.000776162 0.0148128
226 1 4.01247 -5.53749 20.6621 -0.00456345 -0.00224108 0.00298774
227 1 3.20246 -4.36058 20.6882 -0.0158396 -0.00581307 0.00866894
244 1 5.37657 -3.19371 20.177 0.00355066 -0.0109484 -0.00327991
214 1 1.765 -4.37818 20.8057 -0.00466799 0.017035 0.0152857
255 1 6.1222 -1.97499 20.0071 0.00223858 -0.00938179 0.0278592
228 1 3.94651 -3.13887 20.4613 -0.0233419 -0.00303284 0.00151429
245 1 5.54355 -0.655204 20.1784 -0.00313681 -0.00889517 0.0164336
229 1 3.33528 -1.87203 20.2071 -0.00474786 0.00848348 0.00952126
230 1 4.13149 -0.627185 20.198 0.0100134 0.00685707 0.00831998
204 1 1.0569 -3.11192 20.7371 0.0105986 0.0115012 0.00221206
215 1 1.9629 -1.98146 20.3449 -0.000550587 0.00552974 0.00281242
205 1 1.39534 -0.670031 20.0683 -0.0070434 0.00581663 0.00190768
269 1 7.53401 -1.93444 20.1534 -0.00459199 -0.0113952 0.011642
267 1 7.53709 -4.36208 20.0921 -0.00287138 -0.00331276 0.0199393
283 1 9.78803 -5.5032 19.6843 0.00545963 -0.0123839 0.00622433
284 1 9.69506 -3.07814 20.1047 -0.000950399 -0.010988 0.00750094
285 1 9.64747 -0.658836 20.0295 -0.0116103 -0.00668813 0.0123049
294 1 10.498 -4.31475 20.0862 0.00140299 -0.0106575 0.00256818
295 1 10.4406 -1.8222 19.9869 -0.00438675 -0.0140613 0.00913043
306 1 12.6496 -5.55341 19.9999 0 0 0
307 1 11.9041 -4.32686 19.9999 0 0 0
308 1 12.647 -3.09734 19.9999 0 0 0
309 1 11.9037 -1.86828 19.9999 0 0 0
310 1 12.6457 -0.637745 19.9999 0 0 0
323 1 14.0539 -5.56516 19.9999 0 0 0
324 1 14.0472 -3.10129 19.9999 0 0 0
325 1 14.0438 -0.638188 19.9999 0 0 0
268 1 8.23466 -3.11705 20.1434 -0.00158505 0.0043563 0.0160803
270 1 8.21369 -0.727202 20.0358 -0.00280583 0.00668329 0.0140505
266 1 8.28818 -5.49157 19.7352 -0.0019987 -0.00971181 0.027024
71 1 -13.6826 0.591886 19.9999 0 0 0
72 1 -13.0424 1.82079 19.9999 0 0 0
73 1 -13.6895 3.04359 19.9999 0 0 0
74 1 -13.0413 4.27397 19.9999 0 0 0
75 1 -13.7195 5.48914 19.9999 0 0 0
86 1 -11.5623 1.82169 19.9999 0 0 0
87 1 -11.5564 4.27485 19.9999 0 0 0
96 1 -10.7876 0.619852 19.8984 -0.0130686 0.00489122 0.00171122
97 1 -10.7638 3.04984 20.0007 -0.0133927 -0.00401914 -0.00180324
98 1 -10.7917 5.52956 19.9788 0.00980373 -0.00555564 0.00851993
111 1 -9.26556 0.648686 19.9556 -0.00676993 -0.00715727 -0.000365733
112 1 -8.47582 1.86014 19.758 -0.00124595 0.000310898 0.0158285
113 1 -9.25385 3.08782 19.8177 0.00550572 0.00136694 0.0144795
114 1 -8.56243 4.32967 19.6423 0.00308084 0.0143661 0.00161164
115 1 -9.32385 5.60117 19.6002 0.0119543 -0.00181198 0.0122784
126 1 -7.01576 1.8743 19.7889 0.000167981 0.00464728 0.0193803
127 1 -7.1552 4.30706 19.4963 -0.0156894 0.0121708 0.0310046
138 1 -6.46227 5.58613 19.6867 0.000674852 0.00871485 0.0242786
136 1 -6.33846 0.596667 19.8727 -0.00115701 0.0050629 0.0356273
178 1 -2.40974 5.44992 20.788 -0.0024613 -0.00754353 0.00742458
195 1 -1.01175 5.53693 20.9666 0.00120486 -0.0103181 0.00437713
155 1 -5.13869 5.56706 20.0098 -0.00130109 0.00654483 0.0387109
137 1 -6.36159 3.09244 19.3971 0.0138839 0.018479 0.0114893
153 1 -4.92789 3.21373 19.6347 -0.00185885 -0.00350066 0.00831753
154 1 -4.30771 4.43345 19.856 -0.00115405 -0.005062 0.019662
167 1 -2.95201 4.28687 20.2964 -0.00599237 0.00632332 0.00755689
152 1 -4.27922 1.9458 19.6606 -0.0238936 0.00531119 0.0206057
151 1 -4.91085 0.584322 19.6248 -0.0071346 -0.00919432 0.034109
194 1 -0.356023 4.28632 20.7682 -0.00600073 -0.0108911 0.00612322
177 1 -2.29626 2.9714 20.4605 -0.0157914 0.00204736 0.00659907
166 1 -2.86556 1.76471 19.9235 -0.00807719 0.00712804 0.0160134
193 1 -0.951365 3.0428 20.4044 0.00231377 -0.00988612 0.00603035
176 1 -2.07994 0.607887 19.5514 0.00725447 -0.0050871 -0.00106002
191 1 -0.71949 0.667508 19.7677 -0.0067099 -0.00987151 0.00207156
192 1 -0.162415 1.8439 20.2178 -0.00315145 -0.00702873 -0.00350016
258 1 6.1109 5.56712 20.2547 0.00402222 0.00547901 0.0211101
235 1 3.36341 5.52198 20.7843 -0.0217884 0.000530744 0.0173888
218 1 1.90502 5.4936 20.9159 0.00913946 0.00735933 0.0268569
257 1 6.17708 3.0311 20.224 -0.00737654 0.00925931 0.00559302
247 1 5.45974 4.33846 20.2588 -0.00663791 0.00496123 0.0155808
234 1 4.12275 4.28576 20.6264 -0.0130901 -0.00811366 0.00538451
207 1 1.08626 4.34672 20.8859 -0.00423854 -0.00919446 -0.000852245
246 1 5.45945 1.88562 20.3918 0.00252156 0.00275097 0.0148074
233 1 3.2828 3.11195 20.5292 0.00270289 0.00230024 -0.00120625
232 1 4.05399 1.96508 20.4868 -0.00511834 0.00911651 -0.000723482
256 1 6.18597 0.632068 20.1824 0.00712481 -0.00422089 0.0164712
217 1 1.80886 3.08615 20.6968 0.00761068 -0.0171322 0.00717058
231 1 3.40809 0.60728 20.2335 0.0030655 -0.00722648 0.00472213
206 1 1.25 1.84292 20.3782 -0.00343889 -0.00362786 0.00129616
216 1 2.02787 0.592074 20.0424 4.95486e-05 0.00702437 0.0048801
271 1 7.56735 0.5979 20.1051 -0.00136403 0.00317806 0.0208581
273 1 7.62391 3.09264 20.299 -0.00871907 0.00990081 0.0155269
275 1 7.55336 5.50977 20.1213 -0.00530481 0.00820182 0.0216552
286 1 9.74556 1.79279 20.0483 -0.00440557 0.00144856 0.00429098
287 1 9.70591 4.28404 19.9875 0.00599153 0.000967399 0.00765793
296 1 10.4768 0.558055 19.9457 0.004628 0.00827386 0.00859458
297 1 10.4859 3.07339 20.0592 -0.000685183 -0.0015018 -0.000647097
298 1 10.4768 5.49516 19.9925 -0.00611677 0.018859 0.00403085
311 1 11.9034 0.592385 19.9999 0 0 0
312 1 12.6457 1.82255 19.9999 0 0 0
313 1 11.9038 3.05326 19.9999 0 0 0
314 1 12.6466 4.28301 19.9999 0 0 0
315 1 11.9041 5.51379 19.9999 0 0 0
326 1 14.0439 1.82305 19.9999 0 0 0
327 1 14.0468 4.28589 19.9999 0 0 0
272 1 8.32518 1.87647 20.2625 0.00150707 0.0123431 0.0118998
274 1 8.24558 4.31476 20.2388 -0.0114461 0.00660963 0.0214333
76 1 -13.0678 6.73987 19.9999 0 0 0
77 1 -13.743 7.99662 19.9999 0 0 0
78 1 -13.076 9.22053 19.9999 0 0 0
79 1 -13.6781 10.6114 19.9999 0 0 0
80 1 -13.0646 11.9529 19.9999 0 0 0
88 1 -11.5395 6.7281 19.9999 0 0 0
89 1 -11.5535 9.18478 19.9999 0 0 0
90 1 -11.7099 11.6077 19.9999 0 0 0
99 1 -10.8459 7.95296 19.9205 -0.00340686 -0.00333798 0.00236933
100 1 -10.9027 10.4758 19.9999 0 0 0
116 1 -8.5865 6.7794 19.5488 0.0115784 0.00333534 -0.00309249
117 1 -9.3822 7.9509 19.7977 -0.0162954 0.0112436 -0.00379251
118 1 -8.70976 9.17925 19.9295 -0.012119 0.0139316 0.000980443
119 1 -9.37207 10.4804 19.9999 0 0 0
120 1 -8.62688 11.6228 19.9999 0 0 0
130 1 -7.38724 11.6024 19.9999 0 0 0
128 1 -7.21335 6.78075 19.7197 0.00404571 0.00037367 0.0127302
129 1 -7.31879 9.22097 20.0485 -0.00600447 -0.0100949 0.0095283
139 1 -6.58153 8.01546 20.0944 0.00170611 0.0143778 0.00664752
140 1 -6.60892 10.469 19.9999 0 0 0
157 1 -5.21779 7.98969 20.4478 -0.00772501 0.0144164 0.00927192
158 1 -4.42548 9.21381 20.3268 -0.0138301 0.0182702 0.01271
159 1 -5.14663 10.4689 19.9999 0 0 0
160 1 -4.36691 11.6023 19.9999 0 0 0
169 1 -3.0265 9.2188 20.2784 -0.00479214 0.00433235 0.0110713
170 1 -3.12269 11.6018 19.9999 0 0 0
179 1 -2.37919 7.96655 20.4635 -0.0157981 0.00324918 0.0198867
180 1 -2.34103 10.4689 19.9999 0 0 0
197 1 -1.00857 7.93154 20.4918 -0.0115861 -0.00105876 -0.009008
198 1 -0.300732 9.17269 20.2153 -0.0064841 0.000198122 -0.0036144
199 1 -0.876963 10.4688 19.9999 0 0 0
200 1 -0.0953724 11.6018 19.9999 0 0 0
156 1 -4.48565 6.75657 20.4918 -0.0191256 0.0014435 0.0144163
168 1 -3.09606 6.75464 20.6414 -0.00460017 0.00119226 0.0200755
196 1 -0.267539 6.81758 20.8203 -0.0120998 0.00583603 0.00952164
209 1 1.13276 9.21558 20.3542 0.00374575 -0.00674231 0.00616604
210 1 1.14924 11.6018 19.9999 0 0 0
219 1 1.86213 8.03923 20.4661 -0.00526102 -0.0064289 0.0150959
220 1 1.93091 10.4688 19.9999 0 0 0
237 1 3.35727 8.03451 20.5678 -0.00602103 -0.0039536 0.0101867
238 1 4.10434 9.16353 20.3196 0.00784888 0.00343318 0.0107826
239 1 3.39506 10.4687 19.9999 0 0 0
240 1 4.17656 11.6018 19.9999 0 0 0
249 1 5.53702 9.18885 20.2558 0.00504836 0.00106799 0.0159394
250 1 5.4212 11.6017 19.9999 0 0 0
259 1 6.2212 7.97131 20.3639 -0.00608514 0.0133021 0.0165809
260 1 6.20335 10.4685 19.9999 0 0 0
248 1 5.43528 6.85726 20.4852 -0.00567189 -0.00940266 0.00470448
236 1 4.05163 6.78536 20.6902 -0.00319022 0.0128894 0.00631471
208 1 1.18526 6.79719 20.7867 -0.00965639 -0.0199671 0.0175712
277 1 7.59356 7.98018 19.98 -0.0157232 -0.00824864 0.0102793
276 1 8.26131 6.68974 19.8406 -0.00352537 0.00660114 0.0148783
278 1 8.38468 9.20092 19.8169 0.000864523 0.0181528 0.000916862
279 1 7.66711 10.4687 19.9999 0 0 0
280 1 8.44529 11.6024 19.9999 0 0 0
288 1 9.7251 6.64567 19.7576 -0.0243534 0.00660387 -0.0078053
289 1 9.76505 9.15939 19.8541 -0.00344831 0.00201063 0.000403572
290 1 9.6873 11.6101 19.9999 0 0 0
299 1 10.4502 7.88163 19.7658 0.00947676 -0.00305091 -0.00103595
300 1 10.4752 10.4755 19.9999 0 0 0
316 1 12.6473 6.74288 19.9999 0 0 0
317 1 11.9051 7.97805 19.9999 0 0 0
318 1 12.6583 9.19198 19.9999 0 0 0
319 1 11.9246 10.4937 19.9999 0 0 0
320 1 12.7709 11.5297 19.9999 0 0 0
328 1 14.0456 6.75188 19.9999 0 0 0
329 1 14.0237 9.17042 19.9999 0 0 0
330 1 13.9415 11.792 19.9999 0 0 0
