ITEM: TIMESTEP
30600
ITEM: NUMBER OF ATOMS
330
ITEM: BOX BOUNDS pp pp pp
-1.4715758017245314e+01 1.5057610017245315e+01
-1.2710055654020760e+01 1.2664508654020761e+01
-5.0001035148846022e+01 1.0000103514884636e+02
ITEM: ATOMS id type x y z vx vy vz
8 1 -0.938665 -1.0966 9.77553 0.00260052 -0.00143703 -0.0410446
28 1 -1.79632 -2.14855 10.2817 -0.00950115 -0.0114502 -0.0287944
42 1 -2.96822 -0.133427 10.4295 -0.00936985 -0.00362852 -0.0409618
44 1 -2.87809 -1.3983 10.9312 -0.00684278 0.0112531 -0.0460383
52 1 -1.16359 -3.24312 10.9711 0.00623996 -0.0021003 -0.0323044
20 1 -3.6549 -1.88568 11.9042 -0.000348574 0.000974504 -0.0314843
36 1 -1.83983 -3.56297 12.2107 -0.00407039 -0.00417013 -0.0353367
4 1 -4.43252 -0.969201 12.614 0.00162375 0.00945748 -0.0283644
60 1 -3.22067 -3.10979 12.6239 0.00825324 -0.00694009 -0.0257446
12 1 -0.731617 -3.58297 13.0702 -0.00463467 0.0102431 -0.0225213
19 1 -4.14318 -1.52641 13.9045 -0.00366675 0.0021443 -0.0293486
58 1 -3.3923 -2.83935 14.0278 -0.00570432 0.0105945 -0.0424635
11 1 -0.966784 -3.41503 14.5278 -0.00471857 -0.0100126 -0.0353317
34 1 -2.25716 -2.87226 14.975 -0.0138328 0.00505613 -0.0390419
43 1 -3.52967 -0.523386 14.7298 0.00252801 -0.0109676 -0.034077
33 1 0.0735255 -2.83841 15.1998 0.00514849 -0.00960662 -0.0352631
7 1 0.502317 -1.02848 9.80017 -0.00668812 -0.00549754 -0.0310523
26 1 1.13394 -2.11554 10.5662 0.00232898 0.000810723 -0.02184
38 1 2.31435 -0.0367229 10.8737 0.0032609 -0.00577282 -0.0160202
40 1 2.12662 -1.42762 11.32 0.00108869 0.00592508 -0.0343766
50 1 0.24016 -3.18758 11.1197 -0.00896422 0.00422313 -0.0239958
16 1 2.26198 -1.84571 12.6984 0.00592379 -0.000331252 -0.0393371
35 1 0.572586 -3.51164 12.4851 -0.0073219 0.00565199 -0.0332848
2 1 2.72991 -0.905792 13.644 0.00758948 -0.0102315 -0.0256128
59 1 1.62968 -2.96959 13.2368 0.000893351 -0.00109248 -0.0230666
15 1 1.99314 -1.42685 14.7131 0.0153278 -0.00343776 -0.0310283
57 1 1.30247 -2.63409 14.5038 0.00356687 0.00346714 -0.0321474
27 1 -1.67514 0.148063 9.8191 -0.00111648 0.00824962 -0.0453531
51 1 -0.989083 1.29954 10.077 0.000496368 0.00924571 -0.0448036
32 1 -1.65777 2.31705 10.791 -0.0131206 -0.00405377 -0.0272584
10 1 -0.523656 2.86508 11.3471 -0.00155128 0.000863799 -0.0176103
18 1 -3.77274 0.846752 11.1155 -0.00767015 -0.000749758 -0.0356852
56 1 -3.0535 2.15906 11.173 -0.00746001 0.00243949 -0.0286986
3 1 -4.43413 0.412161 12.2746 0.00391484 -0.0110872 -0.0384731
54 1 -3.13977 2.48067 12.6007 -0.00280255 -0.00824239 -0.0328259
9 1 -0.81304 3.29592 12.6947 -0.00669654 -0.00117718 -0.0323262
17 1 -3.8714 1.31851 13.2146 0.00834826 -0.00500169 -0.0248309
30 1 -2.10298 3.17892 13.3111 -0.00267495 0.0130577 -0.0365385
47 1 -1.91013 2.65784 14.6744 0.000319174 -0.00167948 -0.038032
41 1 -3.46396 0.849668 14.444 0.0154024 -0.0122498 -0.0242237
45 1 -0.497137 2.63677 14.8695 -0.00641248 0.0119445 -0.0243928
23 1 -2.51607 1.56755 15.2366 -0.00441214 -0.00979609 -0.0275123
25 1 1.19537 0.10559 10.0279 0.00142847 -0.00128381 -0.0206912
49 1 0.424703 1.27573 10.1472 -0.00768473 0.00391582 -0.031235
31 1 0.716117 2.45732 10.9676 -0.000259919 -0.00886755 -0.0279161
14 1 2.62016 1.00827 11.8771 0.00529471 0.00374002 -0.0243497
55 1 1.90461 2.25773 11.898 -0.00968256 0.00449305 -0.0246313
1 1 2.69209 0.466937 13.2095 0.0109246 -0.00438423 -0.0202265
53 1 1.39125 2.38893 13.2491 0.00837421 0.000289625 -0.0296918
29 1 0.190302 3.06374 13.6879 -0.00189903 0.019365 -0.0328628
13 1 1.90328 1.33696 13.9812 0.0095808 -0.00579154 -0.0256175
37 1 1.27135 1.0506 15.1926 -0.00835589 -0.0136801 -0.0433754
61 1 -13.6674 -11.9461 19.9999 0 0 0
62 1 -13.1228 -10.6724 19.9999 0 0 0
63 1 -13.7825 -9.34696 19.9999 0 0 0
64 1 -13.0772 -8.00396 19.9999 0 0 0
65 1 -13.7542 -6.79742 19.9999 0 0 0
81 1 -11.507 -10.5408 19.9999 0 0 0
82 1 -11.5331 -8.01671 19.9999 0 0 0
91 1 -10.7591 -11.6424 19.9999 0 0 0
92 1 -10.8801 -9.21193 19.9838 0.000794198 -0.00709289 0.00552101
93 1 -10.8296 -6.76143 20.2048 -0.00106098 0.00440682 0.00428753
101 1 -9.52473 -11.6468 19.9999 0 0 0
102 1 -8.74136 -10.5124 19.9999 0 0 0
103 1 -9.45166 -9.20388 20.2662 0.00342234 0.000753508 0.0174141
104 1 -8.71163 -7.93669 20.5044 0.00688811 0.00521784 0.00328462
105 1 -9.36042 -6.66785 20.3402 0.0213339 0.00118323 0.00593723
121 1 -7.27873 -10.5146 19.9999 0 0 0
122 1 -7.23679 -7.89727 20.5208 0.00564617 -0.00772608 0.005687
131 1 -6.50232 -11.6488 19.9999 0 0 0
132 1 -6.47782 -9.19441 20.5215 0.0143911 -0.0135963 -0.0004684
141 1 -5.25854 -11.6473 19.9999 0 0 0
142 1 -4.47674 -10.5145 19.9999 0 0 0
143 1 -5.06156 -9.14158 20.338 0.014422 -0.00787622 0.0015657
144 1 -4.28386 -7.9051 20.2472 0.00496746 -0.00552819 -0.00904685
161 1 -3.01281 -10.5144 19.9999 0 0 0
162 1 -2.89606 -8.03449 19.7165 0.0106512 -0.0137567 -0.0165092
171 1 -2.23133 -11.6474 19.9999 0 0 0
172 1 -2.22989 -9.25854 19.822 0.0163912 -0.0147734 -0.013179
181 1 -0.986751 -11.6474 19.9999 0 0 0
182 1 -0.205108 -10.5143 19.9999 0 0 0
183 1 -0.886531 -9.21291 19.7369 -0.00692603 0.0118547 -0.0081209
184 1 -0.0665372 -8.04422 19.5259 -0.00407775 0.00159738 0.00683509
133 1 -6.42498 -6.67588 20.1578 0.00822258 -0.00604023 0.00866332
145 1 -4.9805 -6.60213 20.1526 0.00396535 0.00625311 0.0108283
173 1 -2.17686 -6.87304 19.2141 0.0107394 -0.00965673 0.000318851
185 1 -0.752573 -6.91717 18.8539 0.0225527 -0.00390792 -0.00259629
201 1 1.25901 -10.5143 19.9999 0 0 0
202 1 1.36154 -7.9408 19.5985 0.0123641 -0.00718076 0.0032135
211 1 2.0406 -11.6474 19.9999 0 0 0
212 1 1.94553 -9.22802 19.8783 0.000144628 -0.00793536 -0.000539819
221 1 3.28523 -11.6473 19.9999 0 0 0
222 1 4.06705 -10.5143 19.9999 0 0 0
223 1 3.30199 -9.29722 19.8605 -0.0105333 0.00774707 -0.0035762
224 1 4.01952 -8.07934 19.6199 0.00786945 0.0061494 -0.01162
241 1 5.53108 -10.5143 19.9999 0 0 0
242 1 5.45592 -7.98366 19.782 -0.000654271 -0.00704084 -0.00790128
251 1 6.31174 -11.6474 19.9999 0 0 0
252 1 6.15324 -9.17903 20.0137 -0.00212184 0.00566475 -0.00232978
261 1 7.55524 -11.6498 19.9999 0 0 0
253 1 6.32283 -6.83729 19.5847 -0.00797005 0.000154203 0.00412438
225 1 3.52007 -6.70314 19.3997 0.00359162 -0.00079752 0.00021187
213 1 2.07473 -6.67933 19.2643 0.0122933 -0.00405581 0.00748919
263 1 7.55981 -9.18853 20.3119 -0.00688728 -0.00253915 -9.01668e-05
265 1 7.77559 -6.75443 19.7513 -0.00778179 -0.00153963 0.00238934
262 1 8.33779 -10.5154 19.9999 0 0 0
264 1 8.33658 -7.93883 20.2522 -0.00238957 -0.00192654 0.0077699
281 1 9.79556 -10.5245 19.9999 0 0 0
282 1 9.75163 -7.96459 20.0034 -9.21571e-05 -0.00422515 -0.00732602
291 1 10.5816 -11.6418 19.9999 0 0 0
292 1 10.48 -9.22015 19.92 0.00412183 0.00555701 0.00110502
293 1 10.552 -6.76328 20.0775 0.00120721 0.00955666 -0.00404689
301 1 11.8019 -11.7522 19.9999 0 0 0
302 1 12.7161 -10.5156 19.9999 0 0 0
303 1 11.8934 -9.22642 19.9999 0 0 0
304 1 12.655 -8.00627 19.9999 0 0 0
305 1 11.8992 -6.77596 19.9999 0 0 0
321 1 14.087 -10.4984 19.9999 0 0 0
322 1 14.0714 -8.01298 19.9999 0 0 0
66 1 -13.0658 -5.54976 19.9999 0 0 0
67 1 -13.7179 -4.30197 19.9999 0 0 0
68 1 -13.0406 -3.0891 19.9999 0 0 0
69 1 -13.6883 -1.86008 19.9999 0 0 0
70 1 -13.0424 -0.636745 19.9999 0 0 0
83 1 -11.5387 -5.54743 19.9999 0 0 0
84 1 -11.5566 -3.09089 19.9999 0 0 0
85 1 -11.5625 -0.637245 19.9999 0 0 0
94 1 -10.8531 -4.30545 19.6782 0.00672915 0.00694938 -0.0106188
95 1 -10.8166 -1.90684 19.892 0.00739972 0.000970725 0.0133425
106 1 -8.70601 -5.5117 19.8237 0.00948362 -0.000445848 0.00739588
107 1 -9.42261 -4.36443 19.27 0.00845287 -0.00496659 -0.00208827
108 1 -8.65487 -3.11517 19.0979 0.00741774 -0.00343272 0.000949354
109 1 -9.39947 -1.92359 19.4494 0.00119684 -0.00642115 0.0175918
110 1 -8.62258 -0.689608 19.4688 0.0136953 0.00138246 0.0209427
124 1 -7.14334 -3.17391 19.075 0.0154758 0.00193362 0.0107811
123 1 -7.24617 -5.4949 19.7968 0.0153202 -0.000595568 0.00589757
125 1 -7.14249 -0.651706 19.1068 0.00345555 -0.00781537 0.00890176
24 1 -2.7757 -0.616127 15.9464 -0.0206795 0.00483157 -0.0369681
48 1 -2.03087 -1.90804 16.0341 -0.00343623 -0.00031625 -0.037677
46 1 -0.539538 -1.90872 16.1113 0.00573506 -0.000942141 -0.0383234
186 1 -0.00321016 -5.66261 18.4948 0.00867256 0.000882664 -0.0148957
134 1 -6.44627 -4.38776 19.3755 0.00128213 0.00623888 0.00670856
135 1 -6.48967 -1.86428 18.8512 0.017569 -0.00136707 0.00626541
146 1 -4.22234 -5.35196 19.92 -0.00784353 0.0022425 0.00653267
147 1 -4.95001 -4.23079 19.3644 0.0169665 -0.00385915 0.000915405
163 1 -2.8035 -5.54169 19.5133 0.0027489 0.00589926 -0.00778944
148 1 -4.29655 -3.07469 18.7352 -0.00401479 -0.00522469 -0.00523595
149 1 -5.02696 -1.90224 18.5298 0.00198597 -0.00972069 -0.000124569
174 1 -2.12544 -4.4038 18.8978 -0.00358289 -4.50461e-05 -0.0109157
164 1 -2.73206 -3.07927 18.7407 0.00588193 0.010665 -0.0178466
187 1 -0.800496 -4.41761 18.3869 -0.00391407 0.0016769 -0.0191443
150 1 -4.11597 -0.700414 18.5244 -0.00523742 -0.00516146 -0.0202459
175 1 -1.95433 -1.93546 18.7635 -0.00357451 0.00235901 -0.0243771
188 1 0.0053784 -3.21155 18.3898 0.0105288 -0.00390172 -0.0338556
165 1 -2.67767 -0.586695 18.7443 8.08015e-05 -0.0019589 -0.0182004
189 1 -0.502439 -1.93266 18.5674 0.0142057 0.0100149 -0.040829
190 1 0.208009 -0.644594 18.6684 -0.00125268 -0.0142035 -0.0425893
22 1 0.128646 -0.639849 16.216 -0.00108778 -0.0110206 -0.0544961
39 1 1.28406 -0.378464 15.4748 0.00160369 0.00379729 -0.0418447
243 1 5.7898 -5.54418 19.2443 0.00487116 -0.0006219 0.00467981
203 1 1.38724 -5.50464 18.6328 0.0121266 0.0121209 -0.0031783
254 1 6.64399 -4.43591 18.7936 0.00379173 -0.00206564 -0.00922517
226 1 4.3446 -5.50678 19.1248 0.00637575 -0.00448849 -0.012537
227 1 3.6831 -4.2957 18.6703 0.00745663 -0.0123274 -0.0139802
244 1 5.91612 -3.26309 18.3298 0.0019546 -0.021458 -0.00761164
214 1 2.2657 -4.35854 18.3481 0.0127583 0.00229476 -0.0144966
255 1 6.45575 -1.95779 18.1305 0.00235293 0.00424772 0.00543041
228 1 4.46393 -3.11873 18.3465 -0.00750193 0.00384569 -0.00760639
245 1 5.74349 -0.688387 18.1098 -0.00207368 -0.00301202 0.00375486
229 1 3.7411 -1.9072 17.9987 0.00173191 -0.00380978 -0.0109315
230 1 4.3646 -0.581401 17.7419 0.0158334 -0.00840264 -0.00769524
204 1 1.49547 -3.1254 18.2364 0.00666685 -0.00472604 -0.0346507
215 1 2.25051 -1.98217 18.2107 0.00879023 0.00542733 -0.025981
205 1 1.59812 -0.640878 18.4259 0.00423586 -0.0058623 -0.0420831
267 1 7.97375 -4.38504 18.8048 0.00235056 -0.00674136 0.0043414
269 1 7.92519 -1.88468 18.4524 -0.00825953 -0.0165043 0.0116012
283 1 9.91271 -5.61631 19.5442 0.00238344 -0.0114045 0.00168526
284 1 9.84023 -3.13616 19.3353 0.00390659 -0.00877986 0.01573
285 1 9.80384 -0.688368 19.515 -0.00886311 0.00854816 0.0119079
294 1 10.5842 -4.3142 19.5828 0.0113971 -0.000355518 0.0160706
295 1 10.5673 -1.90562 19.5952 -0.00789538 -0.0162171 0.00484473
306 1 12.6496 -5.55341 19.9999 0 0 0
307 1 11.9041 -4.32686 19.9999 0 0 0
308 1 12.647 -3.09734 19.9999 0 0 0
309 1 11.9037 -1.86828 19.9999 0 0 0
310 1 12.6457 -0.637745 19.9999 0 0 0
323 1 14.0539 -5.56516 19.9999 0 0 0
324 1 14.0472 -3.10129 19.9999 0 0 0
325 1 14.0438 -0.638188 19.9999 0 0 0
268 1 8.59678 -3.04691 18.7647 -4.71804e-05 0.00231793 0.0112203
270 1 8.52728 -0.628498 18.9184 -0.00168216 -0.00719793 0.00888356
266 1 8.54765 -5.62435 19.2383 0.00319186 -0.0044791 0.00184817
71 1 -13.6826 0.591886 19.9999 0 0 0
72 1 -13.0424 1.82079 19.9999 0 0 0
73 1 -13.6895 3.04359 19.9999 0 0 0
74 1 -13.0413 4.27397 19.9999 0 0 0
75 1 -13.7195 5.48914 19.9999 0 0 0
86 1 -11.5623 1.82169 19.9999 0 0 0
87 1 -11.5564 4.27485 19.9999 0 0 0
96 1 -10.829 0.581659 19.9655 -0.000577563 -0.00371692 -0.010631
97 1 -10.8435 3.07489 19.8206 -0.00396281 0.0119539 -0.00332896
98 1 -10.8532 5.46651 20.0186 0.0113116 -0.00784188 -0.00594317
111 1 -9.27653 0.539617 19.845 0.00569905 -0.00323488 0.0201612
112 1 -8.67038 1.75553 19.3472 0.00749739 0.000704096 0.018023
113 1 -9.46862 3.01089 19.3814 0.00191939 0.00946135 0.00744775
114 1 -8.61582 4.18869 19.4567 0.00485862 0.00513804 -0.000538037
115 1 -9.34352 5.34357 20.0803 -0.000549422 0.00874973 -0.00143649
127 1 -7.14493 4.2461 19.3431 0.00223629 0.00902318 0.00544721
126 1 -7.24989 1.8557 18.9924 -0.00484603 0.00599803 0.0087506
6 1 -2.0938 0.661298 16.129 0.00174358 0.00318736 -0.0487876
5 1 -0.696689 0.571655 16.3057 -0.0233926 -0.00173272 -0.0478804
138 1 -6.49378 5.55102 19.7546 0.0192941 0.00867212 0.0103318
136 1 -6.4558 0.573956 18.9021 0.00403017 0.000117561 0.0147287
178 1 -2.14415 5.62486 18.864 0.00813422 0.00529274 -0.00508013
195 1 -0.683152 5.62212 18.5255 -0.000926812 0.00446426 -0.00383081
155 1 -4.9808 5.49536 19.7464 0.00386742 0.0051507 0.014095
137 1 -6.47339 3.0744 18.8662 0.0128148 -0.00830453 0.0132061
153 1 -5.01323 2.98662 18.8383 0.0211953 9.5954e-05 -0.0012152
154 1 -4.3428 4.25598 19.1575 -0.00827147 0.00132133 0.00321515
167 1 -2.88961 4.43274 18.8603 0.00454611 0.00850849 -0.0124339
152 1 -4.2173 1.81673 18.5531 0.00239392 0.00804426 -0.0161524
151 1 -4.98 0.505709 18.5415 -0.0111069 -0.00980662 -0.0180122
194 1 0.0845021 4.50798 18.1888 -0.00317439 0.00841763 -0.0183026
177 1 -2.0112 3.24937 18.6416 0.00243574 -0.00428412 -0.0269705
166 1 -2.70467 1.92089 18.6193 0.00802895 -0.011343 -0.0233722
193 1 -0.626319 3.25853 18.3336 0.00431867 -0.000125162 -0.0301366
176 1 -1.93926 0.714229 18.6934 -0.00430572 -0.00290088 -0.0279006
192 1 0.18316 1.97451 18.4207 -0.00037973 -0.00646709 -0.0396651
191 1 -0.454866 0.681462 18.7171 -0.00078947 -0.00434938 -0.0409321
21 1 0.0462421 1.59062 15.5941 -0.0042704 -0.00111255 -0.045544
258 1 6.43017 5.57098 19.2505 -0.00323083 0.00289272 -0.00197998
235 1 3.6203 5.56371 19.082 0.00817854 0.00398887 0.00371052
218 1 2.25135 5.59434 18.5746 0.0165294 0.00841265 0.00242087
257 1 6.52458 3.1717 18.2884 -6.8816e-05 0.00801401 -0.00464276
247 1 5.8007 4.44318 18.6183 0.000978365 0.0153811 -0.00335451
234 1 4.38727 4.39609 18.683 0.00260347 0.00259893 -0.0192876
207 1 1.57199 4.4248 18.1576 0.0159535 -0.00276136 -0.0210274
246 1 5.90319 1.91515 18.1967 0.00323402 0.00274305 0.00102684
233 1 3.7394 3.19146 18.0612 0.00338274 -0.0025751 -0.0194906
232 1 4.45751 1.91402 17.978 -0.0019116 0.0017562 -0.0136963
256 1 6.47939 0.592931 18.2347 0.00627981 0.00376192 0.00741073
217 1 2.23233 3.16298 18.0239 0.0120328 0.00987394 -0.0197951
231 1 3.7032 0.704803 17.8089 0.00583394 -0.000295201 -0.0128504
206 1 1.53755 1.85237 18.185 -0.00721525 -0.000257517 -0.0339888
216 1 2.33976 0.632026 18.1969 0.0207556 0.00176141 -0.0332659
275 1 7.82561 5.57174 19.2855 0.00442277 0.0116238 0.00714739
271 1 7.87653 0.601818 18.6966 -0.005988 -0.00271924 0.0031483
273 1 7.95733 3.119 18.532 -0.00228956 0.0114736 0.015363
286 1 9.8407 1.77069 19.4889 0.00341836 -0.00536342 0.0175527
287 1 9.92213 4.28491 19.4115 -0.010064 0.00391207 0.00699682
296 1 10.538 0.556002 19.708 -0.00503471 0.00269832 0.00973025
297 1 10.5541 3.01687 19.6082 0.00951106 0.00380502 -0.00487558
298 1 10.555 5.5445 19.6127 -0.00848671 0.0020344 0.00727238
311 1 11.9034 0.592385 19.9999 0 0 0
312 1 12.6457 1.82255 19.9999 0 0 0
313 1 11.9038 3.05326 19.9999 0 0 0
314 1 12.6466 4.28301 19.9999 0 0 0
315 1 11.9041 5.51379 19.9999 0 0 0
326 1 14.0439 1.82305 19.9999 0 0 0
327 1 14.0468 4.28589 19.9999 0 0 0
272 1 8.57425 1.82065 18.9124 -0.0107714 0.019923 0.0172467
274 1 8.56566 4.26837 18.9788 -0.00584488 -0.00857348 0.011069
76 1 -13.0678 6.73987 19.9999 0 0 0
77 1 -13.743 7.99662 19.9999 0 0 0
78 1 -13.076 9.22053 19.9999 0 0 0
79 1 -13.6781 10.6114 19.9999 0 0 0
80 1 -13.0646 11.9529 19.9999 0 0 0
88 1 -11.5395 6.7281 19.9999 0 0 0
89 1 -11.5535 9.18478 19.9999 0 0 0
90 1 -11.7099 11.6077 19.9999 0 0 0
99 1 -10.792 7.95086 20.0947 0.0083677 0.000201866 0.0199754
100 1 -10.9027 10.4758 19.9999 0 0 0
116 1 -8.65892 6.60502 20.4006 0.00220171 0.00595167 -0.00204825
117 1 -9.33972 7.86932 20.5077 0.0147813 -0.0220469 0.023385
118 1 -8.65176 9.21056 20.4566 0.00317231 -0.00506689 0.00555436
119 1 -9.37207 10.4804 19.9999 0 0 0
120 1 -8.62688 11.6228 19.9999 0 0 0
130 1 -7.38724 11.6024 19.9999 0 0 0
128 1 -7.18172 6.67106 20.207 0.0116598 -0.000142612 0.00426053
129 1 -7.19469 9.16726 20.4356 0.0185791 0.00101598 -0.000472873
139 1 -6.4374 7.93825 20.5348 0.00435734 0.0165748 0.00494573
140 1 -6.60892 10.469 19.9999 0 0 0
157 1 -4.97066 7.87787 20.3041 0.00152319 -0.00246353 -0.00522735
158 1 -4.34956 9.16121 20.3008 0.000329229 -0.00643517 -0.0158135
159 1 -5.14663 10.4689 19.9999 0 0 0
160 1 -4.36691 11.6023 19.9999 0 0 0
169 1 -2.99939 9.08627 19.9161 -0.00104459 -0.0115839 -0.015762
170 1 -3.12269 11.6018 19.9999 0 0 0
179 1 -2.17123 8.03124 19.3972 0.010293 -9.17874e-05 -0.0130443
180 1 -2.34103 10.4689 19.9999 0 0 0
197 1 -0.759171 8.03028 19.1486 0.00732664 -0.00956488 -0.00430441
198 1 -0.0799333 9.17584 19.7239 0.00885092 -0.0042379 0.0168632
199 1 -0.876963 10.4688 19.9999 0 0 0
200 1 -0.0953724 11.6018 19.9999 0 0 0
156 1 -4.18927 6.66754 19.9714 0.00455233 0.0148468 0.00360495
168 1 -2.793 6.76165 19.5329 0.0157737 0.00443335 0.000697867
196 1 0.0690323 6.86978 18.776 0.0109102 -0.00707591 -0.00394298
209 1 1.32633 9.11368 19.9279 0.00753354 -0.000384263 -0.0137108
210 1 1.14924 11.6018 19.9999 0 0 0
219 1 2.03298 7.99109 19.4098 0.0100768 -0.0121108 -0.00269424
220 1 1.93091 10.4688 19.9999 0 0 0
237 1 3.44413 8.038 19.4861 -0.00172134 0.00743505 -0.0062305
238 1 4.09917 9.19736 19.851 -0.00359231 0.000476553 -0.0110033
239 1 3.39506 10.4687 19.9999 0 0 0
240 1 4.17656 11.6018 19.9999 0 0 0
249 1 5.45467 9.25022 20.1532 0.00174427 0.00247358 -0.0150727
250 1 5.4212 11.6017 19.9999 0 0 0
259 1 6.15441 7.99916 20.1615 0.00804804 0.00384606 -0.000376846
260 1 6.20335 10.4685 19.9999 0 0 0
248 1 5.57845 6.76706 19.6914 -0.000791711 0.00622923 0.0038397
236 1 4.20601 6.83578 19.3536 0.00879378 0.00631773 -0.00614313
208 1 1.45131 6.79388 18.8653 -0.00401253 0.000181013 -0.0039131
277 1 7.59418 7.92453 20.0954 0.00403356 0.0104255 0.00145397
276 1 8.41877 6.81378 19.7835 0.00535542 0.0104429 0.00111998
278 1 8.27106 9.18464 20.1784 -0.0119452 -0.00651844 0.00429585
279 1 7.66711 10.4687 19.9999 0 0 0
280 1 8.44529 11.6024 19.9999 0 0 0
288 1 9.86014 6.73717 19.6369 -0.000242924 -0.00247414 -0.00584798
289 1 9.69072 9.23951 20.1379 0.00685846 0.00298267 0.00933556
290 1 9.6873 11.6101 19.9999 0 0 0
299 1 10.4655 8.0256 19.8403 0.00257023 -0.0122037 0.00181957
300 1 10.4752 10.4755 19.9999 0 0 0
316 1 12.6473 6.74288 19.9999 0 0 0
317 1 11.9051 7.97805 19.9999 0 0 0
318 1 12.6583 9.19198 19.9999 0 0 0
319 1 11.9246 10.4937 19.9999 0 0 0
320 1 12.7709 11.5297 19.9999 0 0 0
328 1 14.0456 6.75188 19.9999 0 0 0
329 1 14.0237 9.17042 19.9999 0 0 0
330 1 13.9415 11.792 19.9999 0 0 0
