ITEM: TIMESTEP
43500
ITEM: NUMBER OF ATOMS
330
ITEM: BOX BOUNDS pp pp pp
-1.4715758017245314e+01 1.5057610017245315e+01
-1.2710055654020760e+01 1.2664508654020761e+01
-5.0001035148846022e+01 1.0000103514884636e+02
ITEM: ATOMS id type x y z vx vy vz
8 1 -0.879483 -0.973932 1.04466 0.00760781 0.0126342 -0.0418523
28 1 -1.76106 -2.07041 1.25394 -0.00464566 0.00116605 -0.0451203
42 1 -3.05686 -0.197661 1.24116 0.00126835 -0.00399344 -0.0427977
44 1 -3.10145 -1.57049 1.53564 0.0023004 -0.00285122 -0.0410588
52 1 -1.31844 -3.17438 2.00935 -0.00250407 -0.00167718 -0.0372094
20 1 -3.97284 -2.15186 2.48542 0.00418518 0.0119681 -0.0355001
50 1 0.145129 -3.04541 2.3441 0.00626883 0.00200189 -0.0360225
36 1 -2.07352 -3.6 3.0921 0.00208325 0.00238304 -0.0351649
4 1 -4.58338 -1.18661 3.36327 0.0123848 0.00943022 -0.0367576
60 1 -3.40768 -3.1754 3.33495 -0.0066743 0.0105289 -0.0314284
7 1 0.563604 -0.953007 1.08902 -0.00974506 -0.000469682 -0.0353881
26 1 1.08933 -2.16517 1.77869 0.00562415 0.00398395 -0.0405295
40 1 1.88963 -1.46294 2.78003 0.0182668 -0.00595065 -0.0350148
27 1 -1.66187 0.205698 1.149 0.00594548 0.000313827 -0.0399062
51 1 -1.1452 1.49132 1.33575 -0.00332295 0.000159469 -0.042859
32 1 -1.8713 2.50066 2.07909 0.0100298 -0.00182997 -0.0286461
18 1 -3.76588 0.822045 2.08981 0.0065706 -0.0129937 -0.03837
10 1 -0.949985 3.10976 3.04383 -0.0115387 -0.00100053 -0.0323013
56 1 -3.19797 1.99308 2.45685 -0.00491791 0.00252052 -0.0156472
3 1 -4.58174 0.245042 3.17157 0.014247 -0.00856432 -0.0178778
25 1 1.08014 0.268975 1.58796 -0.0071206 -0.00313194 -0.0282754
49 1 0.211467 1.39539 1.80031 -0.000556271 -0.00842465 -0.0321282
38 1 2.15411 -0.0711719 2.53484 -0.013651 -0.00794339 -0.0322831
31 1 0.304069 2.4444 2.82751 -0.0102847 0.00435021 -0.0278816
12 1 -1.13821 -3.81666 4.1251 0.0113709 -0.000538622 -0.0363128
19 1 -4.33593 -1.58662 4.71421 0.00950484 0.00399675 -0.0261801
58 1 -3.62099 -2.79491 4.66673 -0.00930896 -0.00724159 -0.0353617
11 1 -1.48168 -3.58107 5.51742 -0.0144548 -0.00714781 -0.0299233
34 1 -2.74741 -3.12523 5.80508 0.0124078 -0.00658784 -0.0221582
43 1 -4.01419 -0.770565 5.83808 -0.0181531 -0.0038819 -0.0249441
33 1 -0.558479 -3.18078 6.36312 -0.0103958 -0.0184558 -0.0295275
24 1 -3.27189 -1.06401 6.99456 -0.00737492 0.0109782 -0.0431081
48 1 -2.59367 -2.28951 6.85623 -0.0120203 -0.00100405 -0.0281434
46 1 -1.18648 -2.28093 7.28308 -0.000871497 0.00463852 -0.0329369
22 1 -0.58821 -1.04296 7.84746 -0.0125651 -0.0119658 -0.0570555
16 1 1.9294 -1.95256 4.16663 -0.00242743 -0.00501589 -0.0371131
35 1 0.239547 -3.64821 3.64579 0.000587826 0.00989646 -0.0312737
59 1 1.12502 -3.01857 4.59005 -0.0111519 0.0173301 -0.0355228
2 1 2.02765 -0.988379 5.25724 -0.00107755 -0.0102829 -0.0287318
15 1 1.24774 -1.49586 6.3519 -0.00752898 0.00115747 -0.0358912
57 1 0.631138 -2.64325 5.81988 0.00603073 -0.00152167 -0.0289921
39 1 0.803014 -0.699061 7.47979 0.00139202 -0.0061968 -0.0262978
54 1 -3.42237 2.22982 3.77754 0.00494607 -0.00342518 -0.0301572
9 1 -1.29655 3.2825 4.45485 -0.00148984 -0.004776 -0.0347931
17 1 -4.12919 1.06072 4.30357 0.0250606 -0.000251128 -0.0402985
30 1 -2.571 2.78798 4.78795 0.00832707 -0.00796947 -0.0284747
29 1 -0.394768 2.82579 5.35721 0.000697651 -0.00796699 -0.0372669
47 1 -2.34711 2.2114 6.14719 -0.000346404 -0.00401092 -0.0206214
41 1 -4.10817 0.619843 5.63717 -0.00654246 0.00567513 -0.0467959
45 1 -1.03243 2.44969 6.6175 -0.0215043 0.000591114 -0.0259377
23 1 -3.15521 1.19956 6.56742 -0.0188384 0.00119284 -0.0233802
6 1 -2.58716 0.140553 7.39943 -0.000827161 -0.00358622 -0.0246156
5 1 -1.24392 0.23091 8.00229 -0.0155809 0.00411594 -0.0419075
21 1 -0.506114 1.4146 7.48143 0.00276007 0.000257486 -0.0309658
14 1 1.89228 0.734499 3.74018 -0.00797767 0.0172967 -0.0431387
55 1 1.12615 1.92627 3.82675 -0.00134494 -0.0108132 -0.0294376
1 1 2.13351 0.421848 5.09813 -0.00316183 0.000269346 -0.023965
53 1 0.833584 2.14242 5.14801 -0.0100197 0.0053848 -0.0490959
13 1 1.44163 1.24066 6.01335 0.00771265 -0.00452274 -0.0395869
37 1 0.743693 0.711154 7.2468 -0.00397542 0.00958147 -0.0301668
61 1 -13.6674 -11.9461 19.9999 0 0 0
62 1 -13.1228 -10.6724 19.9999 0 0 0
63 1 -13.7825 -9.34696 19.9999 0 0 0
64 1 -13.0772 -8.00396 19.9999 0 0 0
65 1 -13.7542 -6.79742 19.9999 0 0 0
81 1 -11.507 -10.5408 19.9999 0 0 0
82 1 -11.5331 -8.01671 19.9999 0 0 0
91 1 -10.7591 -11.6424 19.9999 0 0 0
92 1 -10.9187 -9.23942 20.2153 -0.0119989 -0.00446863 0.00381813
93 1 -10.7953 -6.79318 19.6874 0.00460492 -0.00315654 0.00585178
101 1 -9.52473 -11.6468 19.9999 0 0 0
102 1 -8.74136 -10.5124 19.9999 0 0 0
103 1 -9.45968 -9.22175 20.0158 0.0114267 -0.0044588 0.00145562
104 1 -8.72735 -8.04626 19.6077 -0.00967941 0.0118457 -0.000946452
105 1 -9.29987 -6.81201 19.4729 -0.00475955 0.000508537 -0.00425052
121 1 -7.27873 -10.5146 19.9999 0 0 0
122 1 -7.23408 -8.00086 19.3242 -0.0133556 0.0230609 0.000622644
131 1 -6.50232 -11.6488 19.9999 0 0 0
132 1 -6.62424 -9.30737 19.3245 0.00532551 0.0141791 0.00101589
141 1 -5.25854 -11.6473 19.9999 0 0 0
142 1 -4.47674 -10.5145 19.9999 0 0 0
143 1 -5.18713 -9.35036 19.343 0.00714813 0.00397514 0.00462922
144 1 -4.447 -8.12374 19.1247 -0.0039023 0.00428809 0.00160614
161 1 -3.01281 -10.5144 19.9999 0 0 0
162 1 -3.02865 -8.00393 19.5082 -0.00184357 0.00408147 0.00550318
171 1 -2.23133 -11.6474 19.9999 0 0 0
172 1 -2.28448 -9.17676 19.9611 -0.00286432 -0.0055357 0.0152759
181 1 -0.986751 -11.6474 19.9999 0 0 0
182 1 -0.205108 -10.5143 19.9999 0 0 0
183 1 -0.859827 -9.17154 20.2148 0.00753249 -0.0100243 0.0149908
184 1 -0.0628253 -7.91586 20.0074 -0.0121809 -0.00980214 0.0275764
133 1 -6.46187 -6.79133 19.1224 0.0222459 0.00398304 0.00531831
145 1 -4.98359 -6.80388 18.8313 -0.00911874 0.00175014 0.00246506
173 1 -2.15736 -6.81382 19.3313 -0.00907183 0.00366117 0.0221417
185 1 -0.79745 -6.69078 19.7776 0.000377648 -0.00371573 0.0137535
201 1 1.25901 -10.5143 19.9999 0 0 0
202 1 1.41841 -7.99526 19.7745 0.00236981 0.0100413 0.0210799
211 1 2.0406 -11.6474 19.9999 0 0 0
212 1 2.11887 -9.27837 19.8491 -0.00231922 0.0102965 -0.00547051
221 1 3.28523 -11.6473 19.9999 0 0 0
222 1 4.06705 -10.5143 19.9999 0 0 0
223 1 3.51919 -9.16394 19.8549 -0.0140849 0.00247999 0.00106466
224 1 4.31837 -7.95936 19.5732 -0.00226626 0.00585881 0.00367175
241 1 5.53108 -10.5143 19.9999 0 0 0
242 1 5.73105 -8.06157 19.3131 0.0030248 -0.00705548 0.00545563
251 1 6.31174 -11.6474 19.9999 0 0 0
252 1 6.31044 -9.34905 19.6872 -0.0021734 0.00121331 0.00154545
261 1 7.55524 -11.6498 19.9999 0 0 0
253 1 6.41338 -6.86958 19.3742 -0.00424125 9.89482e-05 0.000918937
225 1 3.62544 -6.74226 19.5308 0.0134759 0.00983 0.0158184
213 1 2.12529 -6.74919 19.6752 0.00484486 -0.0104194 0.0191499
265 1 7.78873 -6.85509 19.5221 0.00731692 0.000595105 -0.00420654
263 1 7.64557 -9.30668 19.7243 -0.00796763 -0.00141256 -0.00195653
262 1 8.33779 -10.5154 19.9999 0 0 0
264 1 8.40901 -8.14576 19.6121 0.00361837 -0.0112971 -0.00254691
281 1 9.79556 -10.5245 19.9999 0 0 0
282 1 9.77291 -8.08577 19.9604 -0.00512389 0.00278037 0.0099378
291 1 10.5816 -11.6418 19.9999 0 0 0
292 1 10.5555 -9.27005 20.0094 -0.00860367 0.00848177 0.00241703
293 1 10.4911 -6.86249 19.8213 -0.00542903 -0.00616618 -0.000914285
301 1 11.8019 -11.7522 19.9999 0 0 0
302 1 12.7161 -10.5156 19.9999 0 0 0
303 1 11.8934 -9.22642 19.9999 0 0 0
304 1 12.655 -8.00627 19.9999 0 0 0
305 1 11.8992 -6.77596 19.9999 0 0 0
321 1 14.087 -10.4984 19.9999 0 0 0
322 1 14.0714 -8.01298 19.9999 0 0 0
66 1 -13.0658 -5.54976 19.9999 0 0 0
67 1 -13.7179 -4.30197 19.9999 0 0 0
68 1 -13.0406 -3.0891 19.9999 0 0 0
69 1 -13.6883 -1.86008 19.9999 0 0 0
70 1 -13.0424 -0.636745 19.9999 0 0 0
83 1 -11.5387 -5.54743 19.9999 0 0 0
84 1 -11.5566 -3.09089 19.9999 0 0 0
85 1 -11.5625 -0.637245 19.9999 0 0 0
94 1 -10.7915 -4.32573 20.0264 -0.00654638 0.0128235 -0.00573002
95 1 -10.8736 -1.84346 19.5677 -0.00251083 0.00973217 -0.00314536
106 1 -8.69685 -5.51344 19.3304 0.0040923 0.00990774 -0.00864206
107 1 -9.3818 -4.28649 19.43 0.00343599 -0.00140681 5.78919e-05
108 1 -8.73382 -3.06453 18.857 0.00278373 -0.000485247 0.0156873
109 1 -9.54053 -1.88194 18.8 0.00959345 0.00410522 0.0164268
110 1 -8.81547 -0.619284 18.556 0.00799054 -0.00012293 0.0291861
124 1 -7.28478 -3.13507 18.4848 0.000890109 0.00423523 -0.000848086
125 1 -7.41821 -0.725608 18.0001 0.0121283 -0.00410914 0.00202587
123 1 -7.21358 -5.56852 18.9782 -0.00274204 0.0138308 0.010148
186 1 -0.0444251 -5.37438 19.9877 0.00206141 -0.00802056 0.0282843
134 1 -6.53355 -4.39187 18.6328 -0.00327432 0.0106491 0.0103446
135 1 -6.55997 -1.95135 17.9723 0.0161573 -0.00282257 -0.00323355
146 1 -4.31566 -5.52783 19.0412 0.000222713 0.00595496 0.0128347
147 1 -4.94053 -4.32909 18.7028 0.00560955 0.00632255 0.0215029
163 1 -2.84367 -5.53231 19.1519 0.00250718 -0.000790787 0.0285122
148 1 -4.31409 -3.07656 18.6576 0.0115939 0.00102392 0.0129358
149 1 -5.10553 -1.85204 18.3048 0.0162686 -0.00332639 0.00396427
174 1 -2.12718 -4.29913 19.2924 0.00492285 0.0027189 0.0261854
164 1 -2.90455 -3.03366 19.1484 -0.0044932 0.00157192 0.0122191
187 1 -0.644851 -4.20379 19.5407 0.00278695 -0.00623978 0.0263368
150 1 -4.43451 -0.597588 18.5497 -0.0119216 -0.00522306 0.00345097
175 1 -2.24323 -1.79041 19.3969 0.00979995 0.00108602 0.00533506
165 1 -3.02488 -0.633282 19.1629 0.00442833 -0.0098247 0.00561642
189 1 -0.795814 -1.73399 19.6708 -0.0042564 0.00286329 -0.00700159
188 1 0.00312958 -2.88971 19.642 -0.010299 -0.00754791 -0.000888865
190 1 0.0262452 -0.654307 20.1723 0.00481052 0.00755087 0.00503363
243 1 5.65375 -5.62664 19.3576 -0.00461704 0.000940262 0.0115971
203 1 1.42329 -5.49944 19.9643 0.00809399 -0.0088501 0.0141778
254 1 6.43682 -4.44225 19.2364 -0.00736985 -0.00166436 0.0118212
226 1 4.26393 -5.44746 19.6689 0.000414347 0.00561423 0.0157394
227 1 3.53277 -4.24736 19.8715 0.00189832 0.00596303 0.0217958
244 1 5.7339 -3.19504 19.4589 0.000587366 0.0119331 0.0177927
214 1 2.11251 -4.25932 19.9593 0.0133699 0.00370135 0.0263715
255 1 6.44041 -1.92098 19.1863 -0.00837302 -0.00191359 0.0132519
228 1 4.37168 -3.11209 19.8795 -0.000414291 -0.00284829 0.0150244
245 1 5.82884 -0.655569 19.5415 -0.0086965 0.0130209 0.00562986
229 1 3.63445 -1.88032 19.9754 -0.0192213 0.00683615 0.00344249
230 1 4.39311 -0.663519 19.9402 -0.00151005 0.019562 -0.00235422
204 1 1.39149 -3.02163 20.0519 0.00171006 0.00701806 0.0114893
215 1 2.19673 -1.87259 20.2559 0.0029196 -0.012158 0.00173485
205 1 1.49712 -0.604773 20.4306 0.00531776 -0.00152474 0.00423803
269 1 7.8578 -1.99794 18.9639 -0.0106892 0.00449942 0.017463
267 1 7.82657 -4.49149 19.2959 -0.00419405 0.00969867 0.00731376
283 1 9.93952 -5.58223 19.6063 -0.00223791 -0.00913068 0.00546387
284 1 9.91827 -3.13485 19.2086 -0.00840039 -0.00431805 -0.00713931
285 1 9.88761 -0.647484 19.5528 -0.0097629 0.0208384 0.0134614
294 1 10.5763 -4.27667 19.7024 0.0142638 -0.00406592 0.0116303
295 1 10.591 -1.85235 19.5153 0.00166112 0.0069931 0.00987226
306 1 12.6496 -5.55341 19.9999 0 0 0
307 1 11.9041 -4.32686 19.9999 0 0 0
308 1 12.647 -3.09734 19.9999 0 0 0
309 1 11.9037 -1.86828 19.9999 0 0 0
310 1 12.6457 -0.637745 19.9999 0 0 0
323 1 14.0539 -5.56516 19.9999 0 0 0
324 1 14.0472 -3.10129 19.9999 0 0 0
325 1 14.0438 -0.638188 19.9999 0 0 0
268 1 8.52754 -3.29855 19.0077 -0.0016599 0.000239831 -0.0120652
270 1 8.50127 -0.695218 19.1528 -0.0130633 0.00331103 0.0044905
266 1 8.59015 -5.66862 19.3807 0.00174483 0.0145621 0.0109372
71 1 -13.6826 0.591886 19.9999 0 0 0
72 1 -13.0424 1.82079 19.9999 0 0 0
73 1 -13.6895 3.04359 19.9999 0 0 0
74 1 -13.0413 4.27397 19.9999 0 0 0
75 1 -13.7195 5.48914 19.9999 0 0 0
86 1 -11.5623 1.82169 19.9999 0 0 0
87 1 -11.5564 4.27485 19.9999 0 0 0
96 1 -10.8332 0.626292 19.6048 0.0197212 -0.00346198 0.0095759
97 1 -10.7496 3.03077 19.7812 -0.0114947 0.00441335 0.00214129
98 1 -10.7269 5.48866 20.0022 0.00647049 0.0109465 0.00257646
111 1 -9.4205 0.557013 19.0795 0.015084 0.00352236 0.0263394
112 1 -8.61532 1.80628 18.7603 0.0211941 -0.00273526 0.014424
113 1 -9.36766 3.02954 19.1863 -0.0135523 -0.0108913 0.00555154
114 1 -8.59831 4.26825 19.2318 -0.00316446 0.00574318 -0.00741064
115 1 -9.34727 5.55646 19.521 -0.00969231 0.00451271 -0.00610729
126 1 -7.23727 1.84847 18.3553 0.000544483 -0.0177192 0.0177056
127 1 -7.15079 4.3129 18.9336 0.00981087 -0.0150873 -0.00144314
138 1 -6.43257 5.55571 19.2654 0.0055465 0.00272156 -0.000848861
136 1 -6.65499 0.505634 18.1345 0.00834845 0.00710253 -0.00569364
178 1 -2.15243 5.43104 19.3681 0.00379944 0.0123441 0.0319151
195 1 -0.718726 5.3967 19.7782 0.0037112 0.0118312 0.0276279
155 1 -4.96268 5.51273 19.0179 0.0028598 -0.00673412 0.00474735
137 1 -6.51572 3.04864 18.5152 0.00840259 -0.0135682 0.0120845
153 1 -5.00832 3.08416 18.6815 -0.00508952 -0.00107578 0.0182127
154 1 -4.23691 4.30487 18.93 0.0116938 0.000809842 0.0288003
167 1 -2.79485 4.18505 19.0306 -0.00153348 0.0017039 0.0193969
152 1 -4.34548 1.81422 18.5925 0.00705728 -0.00296615 -0.00308654
151 1 -5.20574 0.573192 18.4139 0.011891 0.00394438 0.0149368
194 1 -0.0403045 4.14585 19.768 -0.0126703 -0.00137479 0.0192142
177 1 -2.16939 2.88756 19.3427 0.00827451 -0.0159643 0.0221813
166 1 -2.92755 1.72927 19.0373 0.000102359 0.012688 -0.00468448
193 1 -0.733308 2.86342 19.727 0.00204792 0.00891134 0.0208159
176 1 -2.22398 0.46837 19.461 0.00158574 0.00147371 0.00807916
191 1 -0.807855 0.554867 19.9592 -0.00973792 0.0063611 0.000898126
192 1 -0.063674 1.72448 20.2667 -0.00868147 -0.00150107 0.0012464
258 1 6.3001 5.64681 19.4389 -0.00741541 -0.0132721 0.0170756
235 1 3.66992 5.50702 19.7451 -0.0013029 0.00517041 0.00978243
218 1 2.2619 5.3849 20.022 0.019947 0.00826289 0.00563638
257 1 6.49986 3.13858 19.3625 -0.000178781 -0.0174861 0.0159285
247 1 5.70211 4.35194 19.6495 0.00613204 0.00304561 0.028324
234 1 4.31325 4.24648 19.8979 0.010145 -0.00927579 0.022737
207 1 1.41986 4.26028 20.1177 0.0162572 0.0101396 0.0110264
246 1 5.79127 1.92554 19.4303 -0.0191765 -0.00835861 0.0182723
233 1 3.52963 2.95644 19.903 0.00448412 -0.00108013 0.0077872
232 1 4.41021 1.94306 19.8192 -0.0164366 0.00213207 0.011012
256 1 6.46123 0.621642 19.2721 0.00275192 -0.00827828 -0.000121279
217 1 2.08579 2.99371 20.0999 -0.00394531 -0.00779726 0.0117433
231 1 3.76796 0.626346 20.0657 -0.00356221 -0.00681586 -0.000958662
206 1 1.45792 1.73522 20.4616 -0.000316451 0.0053367 0.00220944
216 1 2.33881 0.523569 20.3973 0.00293168 -0.00308772 0.00237547
271 1 7.84202 0.598397 19.0559 -0.0164419 0.00930067 0.0209864
273 1 7.8978 3.04764 19.1494 -0.000947411 -0.00171587 0.00270453
275 1 7.7184 5.66822 19.4843 0.000293992 0.00621753 0.00172658
286 1 9.94288 1.9124 19.4733 -0.00114945 -0.0149442 0.0111954
287 1 9.85218 4.35852 19.4738 -0.00325336 -0.00295863 0.00129664
296 1 10.5079 0.604873 19.7262 -0.00484776 0.0097065 0.00574332
297 1 10.5449 3.10374 19.6095 -0.00429956 0.00773181 0.012439
298 1 10.5596 5.54476 19.846 0.0150469 -0.0142895 0.00821238
311 1 11.9034 0.592385 19.9999 0 0 0
312 1 12.6457 1.82255 19.9999 0 0 0
313 1 11.9038 3.05326 19.9999 0 0 0
314 1 12.6466 4.28301 19.9999 0 0 0
315 1 11.9041 5.51379 19.9999 0 0 0
326 1 14.0439 1.82305 19.9999 0 0 0
327 1 14.0468 4.28589 19.9999 0 0 0
272 1 8.57437 1.8101 19.2078 -0.00373727 -0.00355362 0.0183969
274 1 8.4626 4.40893 19.3537 -0.00292913 -0.00749041 7.38222e-05
76 1 -13.0678 6.73987 19.9999 0 0 0
77 1 -13.743 7.99662 19.9999 0 0 0
78 1 -13.076 9.22053 19.9999 0 0 0
79 1 -13.6781 10.6114 19.9999 0 0 0
80 1 -13.0646 11.9529 19.9999 0 0 0
88 1 -11.5395 6.7281 19.9999 0 0 0
89 1 -11.5535 9.18478 19.9999 0 0 0
90 1 -11.7099 11.6077 19.9999 0 0 0
99 1 -10.807 7.9266 19.9592 -0.00443547 -0.000883492 0.00478255
100 1 -10.9027 10.4758 19.9999 0 0 0
116 1 -8.62924 6.80479 19.4782 0.0146555 -0.0116757 0.00762629
117 1 -9.32473 8.0569 19.8628 0.00942019 -0.0137004 0.000606765
118 1 -8.6241 9.17434 19.8871 0.00643957 -0.0148867 0.000267449
119 1 -9.37207 10.4804 19.9999 0 0 0
120 1 -8.62688 11.6228 19.9999 0 0 0
130 1 -7.38724 11.6024 19.9999 0 0 0
129 1 -7.21273 9.11914 19.645 0.0067775 -0.00888418 0.00875152
128 1 -7.24859 6.68325 19.1859 0.00190314 -0.00323726 0.00649607
139 1 -6.52365 7.98318 19.1462 0.00868394 -0.00413247 0.0108429
140 1 -6.60892 10.469 19.9999 0 0 0
157 1 -5.07039 8.04923 18.8983 -0.00770782 -0.00268416 0.00522082
158 1 -4.33754 9.19609 19.4854 0.00252638 -0.0130781 0.00202367
159 1 -5.14663 10.4689 19.9999 0 0 0
160 1 -4.36691 11.6023 19.9999 0 0 0
169 1 -2.98499 9.0224 19.8546 -0.0162741 0.00922755 0.0019595
170 1 -3.12269 11.6018 19.9999 0 0 0
179 1 -2.20808 7.82257 19.6716 -0.00649148 -0.00426985 0.0205012
180 1 -2.34103 10.4689 19.9999 0 0 0
197 1 -0.69708 7.85475 19.9033 -0.00483402 -0.00564971 0.0195084
198 1 -0.131641 9.13386 19.9622 -0.00457443 -0.00991273 -7.23825e-05
199 1 -0.876963 10.4688 19.9999 0 0 0
200 1 -0.0953724 11.6018 19.9999 0 0 0
156 1 -4.34747 6.78672 18.925 -0.000233015 -0.0109211 0.00392136
168 1 -2.92876 6.66567 19.283 0.00396799 -0.000313059 0.0197528
196 1 0.0340887 6.63941 19.8983 0.000888271 0.00638473 0.0151473
209 1 1.23644 9.17787 20.0617 -0.00157685 -0.00228562 0.0179748
210 1 1.14924 11.6018 19.9999 0 0 0
219 1 2.07768 7.9653 19.8451 0.0104503 0.00774939 0.0024579
220 1 1.93091 10.4688 19.9999 0 0 0
237 1 3.44859 7.92177 19.5193 0.0157803 -0.00823316 0.0160791
238 1 4.07619 9.25734 19.7425 -0.00908691 0.0014933 0.00797964
239 1 3.39506 10.4687 19.9999 0 0 0
240 1 4.17656 11.6018 19.9999 0 0 0
249 1 5.49641 9.24673 19.6319 0.00457452 -0.00636366 0.00114591
250 1 5.4212 11.6017 19.9999 0 0 0
259 1 6.24014 8.06926 19.3695 -0.00434066 -0.000584437 -0.000324698
260 1 6.20335 10.4685 19.9999 0 0 0
248 1 5.5103 6.83244 19.2757 0.0111243 -0.00485449 0.00278769
236 1 4.14668 6.76816 19.2984 0.00164548 -0.005909 0.0179279
208 1 1.5203 6.67771 20.0474 0.0185408 0.00126858 0.0163835
277 1 7.72618 8.09321 19.6585 5.99473e-05 -0.0061627 0.00517771
276 1 8.48954 6.86434 19.5971 0.00580786 -0.00989815 0.00446159
278 1 8.46532 9.25526 19.98 0.00708092 0.00609786 -0.00214559
279 1 7.66711 10.4687 19.9999 0 0 0
280 1 8.44529 11.6024 19.9999 0 0 0
288 1 9.9051 6.76534 19.8172 -0.00125952 0.00470465 0.000110956
289 1 9.81352 9.20086 20.1151 0.00661787 0.0088893 0.00606154
290 1 9.6873 11.6101 19.9999 0 0 0
299 1 10.5532 8.00768 19.9688 -0.00661915 -0.00929161 0.00188103
300 1 10.4752 10.4755 19.9999 0 0 0
316 1 12.6473 6.74288 19.9999 0 0 0
317 1 11.9051 7.97805 19.9999 0 0 0
318 1 12.6583 9.19198 19.9999 0 0 0
319 1 11.9246 10.4937 19.9999 0 0 0
320 1 12.7709 11.5297 19.9999 0 0 0
328 1 14.0456 6.75188 19.9999 0 0 0
329 1 14.0237 9.17042 19.9999 0 0 0
330 1 13.9415 11.792 19.9999 0 0 0
