ITEM: TIMESTEP
14100
ITEM: NUMBER OF ATOMS
330
ITEM: BOX BOUNDS pp pp pp
-1.4715758017245314e+01 1.5057610017245315e+01
-1.2710055654020760e+01 1.2664508654020761e+01
-5.0001035148846022e+01 1.0000103514884636e+02
ITEM: ATOMS id type x y z vx vy vz
8 1 -0.799168 -1.27246 15.8589 0.00322205 -0.00159163 -0.00326869
25 1 1.43864 -0.048718 15.7234 -0.00469543 -0.00108501 0.00179282
7 1 0.625624 -1.24797 15.8005 0.00279893 0.00127662 -0.0100784
51 1 -0.787237 1.15398 15.8418 -0.00255113 0.00662901 0.00422795
27 1 -1.49283 -0.0164593 15.9228 -0.00930209 -0.0138049 0.0059539
49 1 0.701872 1.22629 15.7912 -0.00170795 -0.00537316 0.00198503
61 1 -13.6674 -11.9461 19.9999 0 0 0
62 1 -13.1228 -10.6724 19.9999 0 0 0
63 1 -13.7825 -9.34696 19.9999 0 0 0
64 1 -13.0772 -8.00396 19.9999 0 0 0
65 1 -13.7542 -6.79742 19.9999 0 0 0
81 1 -11.507 -10.5408 19.9999 0 0 0
82 1 -11.5331 -8.01671 19.9999 0 0 0
91 1 -10.7591 -11.6424 19.9999 0 0 0
92 1 -10.786 -9.24484 19.8584 -0.00567861 -0.00404616 -0.00365463
93 1 -10.7944 -6.79406 19.8935 -0.00137655 0.00447334 0.00625379
101 1 -9.52473 -11.6468 19.9999 0 0 0
102 1 -8.74136 -10.5124 19.9999 0 0 0
103 1 -9.34371 -9.14185 19.7373 -0.0142196 0.00132358 0.00303684
104 1 -8.58325 -7.89012 19.7874 -0.0106342 -0.00943124 0.0180427
105 1 -9.30711 -6.63175 19.9141 -0.00150691 -0.00803233 0.0171074
121 1 -7.27873 -10.5146 19.9999 0 0 0
122 1 -7.16951 -7.87053 20.2439 0.000497523 -0.00112357 0.0348363
131 1 -6.50232 -11.6488 19.9999 0 0 0
132 1 -6.45106 -9.14954 20.1806 -0.0120866 0.00389268 0.0259462
133 1 -6.50544 -6.76549 21.0335 -0.0148998 0.00656748 0.0233297
141 1 -5.25854 -11.6473 19.9999 0 0 0
142 1 -4.47674 -10.5145 19.9999 0 0 0
143 1 -5.07993 -9.2133 20.552 -0.00228173 0.00130573 0.0298952
144 1 -4.36483 -8.1395 21.388 -0.0044119 -0.00402279 0.0183558
145 1 -5.13872 -6.87521 21.5551 -0.0105191 -0.00609436 0.0165689
161 1 -3.01281 -10.5144 19.9999 0 0 0
162 1 -2.97583 -8.29688 21.7165 -0.00734541 -0.00421877 0.00542657
171 1 -2.23133 -11.6474 19.9999 0 0 0
172 1 -2.33453 -9.41027 21.0077 -0.000495494 0.00220439 0.00590187
181 1 -0.986751 -11.6474 19.9999 0 0 0
182 1 -0.205108 -10.5143 19.9999 0 0 0
183 1 -0.881113 -9.40219 21.0077 -0.00878777 -0.00291612 -0.000514698
184 1 -0.225997 -8.30938 21.857 0.00213593 -0.00898019 0.00696272
201 1 1.25901 -10.5143 19.9999 0 0 0
202 1 1.22607 -8.28394 21.753 0.00373285 -0.00304535 -0.0041608
211 1 2.0406 -11.6474 19.9999 0 0 0
212 1 1.8786 -9.4662 21.0095 0.00515813 -0.00267488 -0.00635598
221 1 3.28523 -11.6473 19.9999 0 0 0
222 1 4.06705 -10.5143 19.9999 0 0 0
223 1 3.29977 -9.40218 20.9171 0.0062206 -0.000638077 0.0108983
224 1 3.97451 -8.19231 21.4637 -0.00495881 -0.00752679 0.0233411
225 1 3.28122 -6.95914 22.0092 0.00652003 -0.00851306 0.0211032
241 1 5.53108 -10.5143 19.9999 0 0 0
242 1 5.4193 -8.04142 21.0763 0.00750191 -0.000723085 0.0320061
251 1 6.31174 -11.6474 19.9999 0 0 0
252 1 6.11735 -9.13771 20.337 -0.00114302 -0.000247658 0.0273716
253 1 6.1189 -6.72046 21.0819 0.00939048 -0.00894575 0.0314463
261 1 7.55524 -11.6498 19.9999 0 0 0
265 1 7.47257 -6.66697 20.4947 0.00336475 -0.00930091 0.0331808
263 1 7.49805 -9.11887 19.9556 -0.00921619 -0.00318437 0.0255216
262 1 8.33779 -10.5154 19.9999 0 0 0
264 1 8.19241 -7.84584 19.8884 0.00747388 -0.00496298 0.0236979
281 1 9.79556 -10.5245 19.9999 0 0 0
282 1 9.67881 -7.9826 19.6934 0.0031455 -0.0129463 0.00398973
291 1 10.5816 -11.6418 19.9999 0 0 0
292 1 10.4637 -9.17849 19.829 -5.07841e-05 -0.00447533 -0.00345244
293 1 10.4283 -6.69788 19.8341 0.00811045 -0.00576505 0.0086634
301 1 11.8019 -11.7522 19.9999 0 0 0
302 1 12.7161 -10.5156 19.9999 0 0 0
303 1 11.8934 -9.22642 19.9999 0 0 0
304 1 12.655 -8.00627 19.9999 0 0 0
305 1 11.8992 -6.77596 19.9999 0 0 0
321 1 14.087 -10.4984 19.9999 0 0 0
322 1 14.0714 -8.01298 19.9999 0 0 0
66 1 -13.0658 -5.54976 19.9999 0 0 0
67 1 -13.7179 -4.30197 19.9999 0 0 0
68 1 -13.0406 -3.0891 19.9999 0 0 0
69 1 -13.6883 -1.86008 19.9999 0 0 0
70 1 -13.0424 -0.636745 19.9999 0 0 0
83 1 -11.5387 -5.54743 19.9999 0 0 0
84 1 -11.5566 -3.09089 19.9999 0 0 0
85 1 -11.5625 -0.637245 19.9999 0 0 0
94 1 -10.8178 -4.31377 20.1795 -0.000462997 -0.00792288 0.0112212
95 1 -10.9206 -1.87118 20.4568 0.00264724 -0.00560227 0.00451679
106 1 -8.60426 -5.51613 20.5524 -0.00559595 0.00247146 0.0275218
107 1 -9.39939 -4.3195 20.692 -0.00482196 -0.00337153 0.0292547
108 1 -8.79199 -3.15517 21.3513 -0.00289467 0.00276595 0.023551
109 1 -9.58049 -1.94336 21.2373 -0.0122732 0.000729921 0.0118154
110 1 -8.95247 -0.716786 21.6383 0.000813879 -0.00313614 0.021537
124 1 -7.34463 -3.14186 21.8237 0.00179135 0.0157167 0.0141219
28 1 -1.4695 -2.19601 16.7918 -0.000339283 0.00469698 -0.0101202
42 1 -2.3712 -0.208413 16.9629 -0.0104702 0.00463027 -0.00373283
44 1 -2.48166 -1.48237 17.5264 -0.000652277 0.0053119 -0.0223661
52 1 -0.823855 -3.06354 17.6616 0.00111737 0.000120992 -0.0108028
20 1 -3.25572 -1.95378 18.6195 -0.00958806 0.00280472 0.0055692
36 1 -1.44535 -3.64848 18.8762 -0.00015417 -0.00583932 0.00224066
4 1 -3.90769 -0.867866 19.4255 -0.00760517 0.0045557 -0.0108647
12 1 -0.180227 -3.82014 19.5527 -0.00501568 0.00441362 -0.00178443
60 1 -2.63738 -2.97934 19.3962 -0.00538981 0.0025621 -0.0125419
123 1 -7.22979 -5.49152 21.1653 0.000538265 0.00526781 0.0233629
19 1 -3.41649 -1.10089 20.7502 -0.00839459 -0.00965872 0.00196289
58 1 -2.8169 -2.45991 20.7453 0.00218941 -0.00312922 0.000141666
11 1 -0.294739 -3.27407 20.8935 -0.0103827 0.0163621 -0.00809234
34 1 -1.44463 -2.52615 21.3114 0.00796016 0.0144579 -0.0152202
48 1 -1.07814 -1.33785 21.9911 -5.65314e-06 -0.0017955 0.0226005
134 1 -6.59399 -4.37305 21.895 0.00628461 0.00627619 0.0179588
26 1 1.32424 -2.08009 16.7651 -0.00264269 0.000130105 0.011069
38 1 2.33482 -0.18041 16.8995 0.0117781 0.00461798 0.0027271
40 1 2.4855 -1.55216 17.4055 -0.0141202 -0.00154577 -0.0106814
50 1 0.612592 -2.89883 17.7822 -0.00566986 8.2015e-05 -0.0026422
16 1 3.04055 -1.94055 18.7364 -0.00945351 -0.0029908 0.011316
35 1 1.13567 -3.57414 18.93 -0.00234895 -0.00073822 -0.0100843
2 1 3.58251 -0.823243 19.5085 -0.00438047 0.000981173 0.00891935
59 1 2.39427 -3.04489 19.5025 -0.00923799 -0.000873739 0.00555525
15 1 2.81471 -1.05655 20.7397 -0.00127816 0.00789114 0.00179815
57 1 2.10999 -2.36605 20.7329 0.00543778 0.00760718 -0.011229
33 1 0.810575 -2.47413 21.3618 0.00032827 0.00488673 0.0146292
46 1 0.324766 -1.32754 22.0344 0.00320211 0.00942194 0.0174358
243 1 5.37182 -5.58459 21.6935 0.00079026 -0.00153619 0.0230822
254 1 6.08527 -4.34089 21.882 0.00440609 -0.00556628 0.0149165
267 1 7.48538 -4.31387 21.3704 -0.000904722 -0.0065553 0.0229882
269 1 7.65911 -1.79926 21.7865 0.00741148 -0.00506863 0.0208296
266 1 8.19707 -5.40148 20.6386 0.0180742 -0.0154576 0.031727
268 1 8.25999 -3.0889 21.3996 0.00436535 -0.0016649 0.0307101
270 1 8.49507 -0.592198 21.5302 0.0163576 -0.00564302 0.0217913
283 1 9.64222 -5.46729 20.1306 0.00816597 -0.00134181 0.0310183
284 1 9.69194 -3.12078 20.8429 0.0117845 0.00679989 0.0342907
285 1 9.93948 -0.652509 21.0983 0.0146827 0.00754035 0.0329608
294 1 10.4369 -4.24799 20.273 0.000465525 0.0039221 0.0317714
295 1 10.5544 -1.92634 20.6958 0.00457006 -0.00262749 0.0352949
306 1 12.6496 -5.55341 19.9999 0 0 0
307 1 11.9041 -4.32686 19.9999 0 0 0
308 1 12.647 -3.09734 19.9999 0 0 0
309 1 11.9037 -1.86828 19.9999 0 0 0
310 1 12.6457 -0.637745 19.9999 0 0 0
323 1 14.0539 -5.56516 19.9999 0 0 0
324 1 14.0472 -3.10129 19.9999 0 0 0
325 1 14.0438 -0.638188 19.9999 0 0 0
71 1 -13.6826 0.591886 19.9999 0 0 0
72 1 -13.0424 1.82079 19.9999 0 0 0
73 1 -13.6895 3.04359 19.9999 0 0 0
74 1 -13.0413 4.27397 19.9999 0 0 0
75 1 -13.7195 5.48914 19.9999 0 0 0
86 1 -11.5623 1.82169 19.9999 0 0 0
87 1 -11.5564 4.27485 19.9999 0 0 0
96 1 -10.9048 0.590678 20.4904 0.00546568 -0.000801588 -0.00458301
97 1 -10.8629 3.05528 20.3593 -0.00551407 0.00492611 0.0113425
98 1 -10.7788 5.51386 20.0478 -0.00851215 0.00245304 0.011505
111 1 -9.61616 0.576354 21.3102 -0.00874374 -0.0050449 0.00518978
112 1 -8.88821 1.79606 21.5767 0.00236666 0.00540314 0.0197237
113 1 -9.51953 3.00195 21.0851 -0.0175233 0.00541701 0.0185663
114 1 -8.7467 4.21016 21.0022 -0.00356878 0.00398122 0.0157194
115 1 -9.328 5.44927 20.3288 -0.0115202 -0.000686735 0.0247464
126 1 -7.39255 1.88762 22.0279 -0.00616913 -0.000431043 0.0185626
127 1 -7.34347 4.26214 21.4893 -0.00727989 -0.00903296 0.018159
10 1 -0.0764782 2.73374 17.4988 -0.00925713 0.000592333 0.00915362
32 1 -1.09383 2.11565 16.8329 -0.000358692 -0.00740515 -0.00189007
18 1 -2.85634 0.782835 17.7894 -0.00591791 0.0137092 -0.0175747
56 1 -2.24175 2.05704 17.6907 -0.00846798 0.00313726 -0.00819349
3 1 -3.73578 0.544987 18.9187 -0.0122174 -0.00151874 0.00242711
9 1 -0.213073 3.43172 18.7456 -0.00325731 -0.0118495 0.00985642
54 1 -2.6273 2.78305 18.9303 -0.00782156 -0.00342427 -0.0128894
17 1 -3.46842 1.77937 19.6436 -0.00357175 -0.00542284 -0.00772497
30 1 -1.4757 3.45674 19.4747 0.00155549 -0.00706241 0.00353804
47 1 -1.01645 3.05048 20.8016 0.00605795 -0.00982619 -0.00234217
41 1 -3.00818 1.45335 20.9759 0.017444 -0.00269731 -0.005171
23 1 -1.8186 2.07628 21.5053 0.000100593 -0.0070318 -0.000839877
43 1 -3.00925 0.0826532 21.5006 0.00741565 -0.0049713 5.30738e-05
138 1 -6.6177 5.55254 21.435 0.00341061 -0.00404927 0.0161912
155 1 -5.20901 5.5934 21.9562 0.00659327 -0.00219854 0.0138025
31 1 1.00347 2.14832 16.8668 -0.00941258 -0.00288569 -0.00404709
14 1 2.70868 0.858075 17.8179 0.000145244 0.00665866 0.00592252
55 1 2.08384 2.17991 17.6637 -0.000262154 -0.00735353 -0.00672079
1 1 3.47541 0.573673 19.0613 -0.00552519 0.00657314 3.71998e-06
53 1 2.22511 2.71082 18.9775 -0.00687164 -0.00587837 0.00516213
13 1 3.00299 1.74375 19.7823 -0.0118382 0.000184604 -0.0084477
29 1 1.03694 3.43618 19.4168 -0.00167948 -0.00668693 -0.0082171
45 1 0.410508 3.07455 20.6787 0.00136708 -0.0162974 0.01179
37 1 2.22861 1.44085 20.9471 -0.0187267 -0.002885 0.00462655
5 1 0.259246 1.0425 22.0498 0.00180227 0.000759659 0.0269885
21 1 0.949956 1.99019 21.3691 -0.00674432 0.00514323 0.00423081
39 1 2.14761 0.0362162 21.3612 -0.0165635 -0.015673 0.00750603
257 1 6.11305 3.03806 22.0245 0.0155004 0.00471124 0.0147464
258 1 6.10513 5.48782 21.5244 0.00806788 0.00820906 0.0183796
273 1 7.52215 3.05233 21.6462 0.0138092 0.00629003 0.0201401
275 1 7.46799 5.5608 20.9834 0.0156009 0.00571692 0.0285831
271 1 7.67829 0.620806 21.783 0.00843588 -0.00298324 0.0204144
272 1 8.38335 1.90354 21.5527 0.0133143 -0.00636057 0.0231608
274 1 8.20953 4.27251 21.0709 0.00840235 0.0051433 0.0326312
286 1 9.87039 1.92205 21.0566 0.0144173 -0.00730671 0.0352914
287 1 9.61179 4.31408 20.5786 0.0130442 -0.00238827 0.0329823
296 1 10.6121 0.649164 20.8214 0.012076 0.00193595 0.0261695
297 1 10.458 3.14268 20.52 0.00806386 -0.00872216 0.0339679
298 1 10.4228 5.45434 20.0415 -0.00845601 0.00799382 0.0197131
311 1 11.9034 0.592385 19.9999 0 0 0
312 1 12.6457 1.82255 19.9999 0 0 0
313 1 11.9038 3.05326 19.9999 0 0 0
314 1 12.6466 4.28301 19.9999 0 0 0
315 1 11.9041 5.51379 19.9999 0 0 0
326 1 14.0439 1.82305 19.9999 0 0 0
327 1 14.0468 4.28589 19.9999 0 0 0
76 1 -13.0678 6.73987 19.9999 0 0 0
77 1 -13.743 7.99662 19.9999 0 0 0
78 1 -13.076 9.22053 19.9999 0 0 0
79 1 -13.6781 10.6114 19.9999 0 0 0
80 1 -13.0646 11.9529 19.9999 0 0 0
88 1 -11.5395 6.7281 19.9999 0 0 0
89 1 -11.5535 9.18478 19.9999 0 0 0
90 1 -11.7099 11.6077 19.9999 0 0 0
99 1 -10.81 7.93277 19.8382 0.00407433 0.00124401 -0.000868392
100 1 -10.9027 10.4758 19.9999 0 0 0
116 1 -8.6102 6.67728 20.1024 -0.0142559 0.00055802 0.0284153
117 1 -9.3106 7.8979 19.7307 -0.00344969 0.00990018 0.00952781
118 1 -8.57153 9.1436 19.7813 -0.00252066 0.000960054 0.0119212
119 1 -9.37207 10.4804 19.9999 0 0 0
120 1 -8.62688 11.6228 19.9999 0 0 0
130 1 -7.38724 11.6024 19.9999 0 0 0
129 1 -7.16039 9.03204 19.9601 -0.00112465 -0.00358685 0.0214362
128 1 -7.23038 6.66304 20.6599 -0.00420143 -0.00506541 0.0315189
139 1 -6.41898 7.86336 20.5126 -0.00996689 0.00372213 0.0333237
140 1 -6.60892 10.469 19.9999 0 0 0
156 1 -4.34193 6.80004 21.7875 0.00010927 0.00394859 0.0138987
157 1 -5.0508 7.98282 21.1014 -0.0195302 0.00578236 0.0210949
158 1 -4.41993 9.24227 20.8509 -0.00520011 0.00122095 0.0230516
159 1 -5.14663 10.4689 19.9999 0 0 0
160 1 -4.36691 11.6023 19.9999 0 0 0
169 1 -3.02339 9.38838 20.9566 0.000896705 -0.00440577 0.00742652
170 1 -3.12269 11.6018 19.9999 0 0 0
179 1 -2.30824 8.23644 21.697 -0.002186 0.00985359 0.0120237
180 1 -2.34103 10.4689 19.9999 0 0 0
197 1 -0.900993 8.29326 21.848 0.00699251 0.0126112 0.000633525
198 1 -0.199287 9.39527 21.0477 -0.00272595 -0.00648681 -0.00382043
199 1 -0.876963 10.4688 19.9999 0 0 0
200 1 -0.0953724 11.6018 19.9999 0 0 0
209 1 1.21426 9.4247 20.9419 -0.00382236 0.00720675 -0.0129939
210 1 1.14924 11.6018 19.9999 0 0 0
219 1 1.83319 8.2892 21.7217 0.00307492 -0.00148575 0.00598893
220 1 1.93091 10.4688 19.9999 0 0 0
236 1 3.97803 6.91513 21.8361 -0.000471336 -0.000954982 0.0271048
237 1 3.26164 8.17053 21.5464 0.00559838 0.00534669 0.00694813
238 1 3.99392 9.26488 20.8814 -0.00749113 0.00732959 0.0204115
239 1 3.39506 10.4687 19.9999 0 0 0
240 1 4.17656 11.6018 19.9999 0 0 0
248 1 5.3812 6.76557 21.4031 0.00469894 6.27849e-05 0.0309201
249 1 5.41041 9.18975 20.64 0.0075821 0.0117116 0.0257113
250 1 5.4212 11.6017 19.9999 0 0 0
259 1 6.07903 7.94378 20.7213 -0.000465718 0.0148813 0.0332389
260 1 6.20335 10.4685 19.9999 0 0 0
277 1 7.49015 7.88155 20.1511 0.00471277 0.0109746 0.0301452
276 1 8.21606 6.64868 20.2094 0.00081985 0.0249429 0.0296294
278 1 8.28035 9.09781 19.844 -0.00171044 0.00554607 0.0132702
279 1 7.66711 10.4687 19.9999 0 0 0
280 1 8.44529 11.6024 19.9999 0 0 0
288 1 9.66245 6.62886 19.8557 0.00355378 0.0135058 0.0147382
289 1 9.72433 9.11936 19.7432 0.00585453 0.0197586 0.00113279
290 1 9.6873 11.6101 19.9999 0 0 0
299 1 10.4741 7.90781 19.7594 0.00316365 0.00323123 0.000292068
300 1 10.4752 10.4755 19.9999 0 0 0
316 1 12.6473 6.74288 19.9999 0 0 0
317 1 11.9051 7.97805 19.9999 0 0 0
318 1 12.6583 9.19198 19.9999 0 0 0
319 1 11.9246 10.4937 19.9999 0 0 0
320 1 12.7709 11.5297 19.9999 0 0 0
328 1 14.0456 6.75188 19.9999 0 0 0
329 1 14.0237 9.17042 19.9999 0 0 0
330 1 13.9415 11.792 19.9999 0 0 0
173 1 -2.29682 -7.02228 22.3196 -0.00799283 -0.0116705 0.0163235
185 1 -0.867735 -7.02854 22.4627 -0.00448595 -0.00917123 0.016296
213 1 1.87587 -6.91812 22.1784 0.0094077 -0.00612194 0.0164857
125 1 -7.51029 -0.657116 22.0957 -0.00598373 0.00132253 0.0201055
135 1 -6.73833 -1.91043 22.3472 -0.0059035 0.00813958 0.0192754
146 1 -4.43574 -5.67101 22.188 -0.000915951 0.00884453 0.0167916
147 1 -5.19143 -4.41898 22.4881 0.0106409 -0.00551053 0.0234057
24 1 -1.76257 -0.0461148 22.0863 0.00497437 0.000252954 -0.00165112
163 1 -3.05995 -5.74393 22.562 0.00517409 -0.0067916 0.0132493
148 1 -4.58088 -3.20002 22.9779 0.0130811 0.00951033 0.0249135
149 1 -5.41357 -1.98261 23.0285 -0.000503623 -0.000628386 0.0122538
186 1 -0.207088 -5.67215 22.8141 0.00809234 -0.0185803 0.00711706
174 1 -2.44577 -4.49668 23.2039 0.00444351 -0.0058741 0.000699261
150 1 -4.75651 -0.685148 23.3915 -0.000233688 0.000715994 0.0124098
164 1 -3.16479 -3.22505 23.383 0.010774 -0.00132262 0.0153226
175 1 -2.63517 -1.94372 23.9517 -0.00208311 0.00512644 0.0241213
187 1 -0.971218 -4.47335 23.3749 -0.00467267 -0.0210695 0.0120607
188 1 -0.319053 -3.20084 23.7846 0.00335264 -0.0117039 0.0150563
165 1 -3.3579 -0.649557 23.8513 0.00570673 0.00386886 0.019413
189 1 -1.15091 -1.92994 24.1081 0.0132142 0.00506138 0.00742508
190 1 -0.340229 -0.663338 24.2732 0.0219218 0.0101411 0.0185182
226 1 3.99277 -5.64479 22.1933 0.00668796 -0.00309894 0.0152332
255 1 6.24638 -1.90484 22.2185 0.0143554 0.00776248 0.0168401
22 1 0.944073 -0.116126 22.0428 0.00990078 -0.00386802 0.00483383
227 1 3.28481 -4.42084 22.7276 -0.00622573 0.000844855 0.0112186
244 1 5.43157 -3.12046 22.4232 0.00241691 0.00125789 0.00871379
203 1 1.19985 -5.69195 22.7625 0.00661674 -0.0121148 0.0182533
228 1 4.04702 -3.12768 22.8873 0.0216322 0.0131031 0.0127713
245 1 5.53186 -0.631642 22.4189 0.00981123 -0.000686063 0.0176261
214 1 1.9145 -4.39747 23.0571 0.00306662 -0.012682 0.0181267
229 1 3.35998 -1.86772 23.2262 -0.00403705 -3.87041e-05 0.00501558
230 1 4.09259 -0.603786 23.0069 0.000552883 -0.000136183 0.00813542
204 1 1.2096 -3.12729 23.5492 0.00526206 -0.0118199 0.0135942
215 1 1.93335 -1.92019 23.6951 0.0119554 -0.0136822 0.0156943
205 1 1.16392 -0.698168 24.015 0.0175809 -0.00678626 0.0282331
6 1 -1.11077 1.07723 22.1565 0.00737728 0.00212691 0.00783982
137 1 -6.66535 3.14572 22.1682 0.00299387 -0.00552697 0.0208839
136 1 -6.79382 0.621172 22.4593 -0.00661396 -0.00341676 0.00914563
153 1 -5.27779 3.15313 22.7651 0.0021575 -0.00744342 0.0161313
154 1 -4.50632 4.46037 22.5808 0.00527444 0.000893273 0.0197891
178 1 -2.35755 5.72397 22.8736 -0.00543164 0.0113289 0.0115029
167 1 -3.13033 4.45994 23.0672 0.00259446 -0.00627773 0.0278949
195 1 -0.925808 5.70162 22.9955 -0.00408329 0.011187 0.00827244
151 1 -5.472 0.598146 23.184 0.000565706 -0.00192068 0.000559585
152 1 -4.70941 1.8811 23.3112 0.00768823 -0.00120959 0.0237881
194 1 -0.229399 4.36727 23.3614 -0.000241899 0.0111779 0.002349
166 1 -3.3048 1.89572 23.702 0.0112219 -0.00419464 0.0116501
177 1 -2.55627 3.17366 23.5276 0.0153202 -0.00742608 0.0187292
193 1 -1.06041 3.15454 23.6867 -0.000329705 -5.03808e-05 0.00436774
176 1 -2.62901 0.617164 24.0596 0.0127559 -0.00354873 0.0173607
191 1 -1.17939 0.608421 24.3125 0.0166889 0.00832595 0.0217449
192 1 -0.313805 1.87111 24.0182 0.00701993 0.0054924 0.0223391
235 1 3.22759 5.70961 22.3247 0.00598056 0.00630539 0.0248732
247 1 5.32647 4.29107 22.0368 -0.00271241 7.89487e-06 0.0122678
256 1 6.23994 0.566017 22.1126 0.006556 0.000927562 0.0239716
218 1 1.8305 5.67183 22.5444 0.000984532 0.0133875 0.0171392
234 1 3.94666 4.35877 22.5486 0.0114199 -0.0108719 0.0163988
246 1 5.4924 1.7779 22.4459 0.00168561 -0.00176146 0.0192996
233 1 3.29973 3.04101 23.0284 0.00610266 0.000864126 0.00582569
207 1 1.23609 4.34195 23.0917 0.00151648 0.00744206 0.00977017
232 1 4.09481 1.82251 23.0386 -0.00588205 0.00316309 0.0146539
217 1 1.96742 3.10267 23.5066 0.00462416 0.00742233 0.00578936
231 1 3.38313 0.548931 23.4115 0.00673089 -4.20873e-05 0.00668657
206 1 1.1807 1.80568 23.9173 0.00706754 0.0188958 0.0172529
216 1 1.92484 0.553936 23.9157 0.0184299 -0.00538121 0.00444395
168 1 -2.97255 6.9461 22.2224 0.00339589 0.00424435 0.0169994
196 1 -0.246133 6.99177 22.5444 0.00459149 0.00724164 0.0149552
208 1 1.18825 6.98442 22.365 0.00593132 0.0146876 0.0214227
