ITEM: TIMESTEP
6100
ITEM: NUMBER OF ATOMS
330
ITEM: BOX BOUNDS pp pp pp
-1.4715758017245314e+01 1.5057610017245315e+01
-1.2710055654020760e+01 1.2664508654020761e+01
-5.0001035148846022e+01 1.0000103514884636e+02
ITEM: ATOMS id type x y z vx vy vz
8 1 -0.67528 -1.34657 13.0295 -0.00587663 0.00386581 0.0500842
20 1 -3.13112 -1.86006 15.5797 -0.0146203 -0.00260725 0.0419351
27 1 -1.39085 -0.0803448 12.991 -0.00337314 -0.00452468 0.0520071
28 1 -1.40236 -2.27477 13.8726 0.00297811 -0.00635345 0.0515431
36 1 -1.23842 -3.43419 15.998 -0.00123321 -0.00585995 0.047083
42 1 -2.57512 -0.274406 13.7723 -0.00053314 -0.00693228 0.050553
44 1 -2.61385 -1.60768 14.2869 -0.003418 0.00582469 0.046059
52 1 -0.701026 -3.19258 14.7198 -0.00174497 0.00643491 0.0465031
7 1 0.702101 -1.3304 13.0472 0.00584161 0.0017589 0.0510891
16 1 3.11146 -1.79964 15.5845 0.0107071 -0.00577905 0.0457528
25 1 1.40548 -0.107647 12.9976 0.00343165 -0.00378539 0.0530817
26 1 1.4096 -2.29372 13.8335 0.00696438 0.00464953 0.0497976
35 1 1.19938 -3.46838 15.9711 -0.000804276 -0.0067112 0.0488608
38 1 2.58759 -0.250436 13.7984 0.00406544 0.00121636 0.0508552
40 1 2.59423 -1.58409 14.2913 0.00175895 0.000447059 0.0452867
50 1 0.720158 -3.20807 14.6698 -0.00306894 0.000729765 0.04464
3 1 -3.5 0.639207 15.8729 -0.0201323 -0.00149506 0.0492962
9 1 0.00145558 3.60911 15.3943 0.00451948 0.0110745 0.0391871
10 1 0.0180311 3.02694 14.1051 0.00306851 0.00264353 0.0451338
18 1 -2.94487 0.865707 14.5561 -0.007279 0.00509596 0.0476996
32 1 -1.14249 2.31229 13.6816 -0.000469785 0.00055694 0.0514707
51 1 -0.719391 1.16963 12.9473 -0.00245999 -0.00176737 0.0561734
54 1 -2.39466 2.75915 15.7794 -0.00453265 0.00633977 0.0437072
56 1 -2.28565 2.15909 14.485 -0.00142061 -0.000870257 0.0485576
1 1 3.51073 0.634461 15.8723 0.0211213 -0.000294821 0.0480094
14 1 2.98105 0.871472 14.5555 0.00627209 0.00514182 0.0466333
31 1 1.15923 2.31258 13.6737 0.00367191 -0.00172415 0.0527438
49 1 0.729936 1.15867 12.946 -0.00346804 0.00277787 0.0541939
53 1 2.35551 2.73955 15.7893 -0.000294734 0.0100113 0.0464474
55 1 2.32794 2.1421 14.4918 0.0014725 -0.00460851 0.0419876
61 1 -13.6674 -11.9461 19.9999 0 0 0
62 1 -13.1228 -10.6724 19.9999 0 0 0
63 1 -13.7825 -9.34696 19.9999 0 0 0
64 1 -13.0772 -8.00396 19.9999 0 0 0
65 1 -13.7542 -6.79742 19.9999 0 0 0
81 1 -11.507 -10.5408 19.9999 0 0 0
82 1 -11.5331 -8.01671 19.9999 0 0 0
91 1 -10.7591 -11.6424 19.9999 0 0 0
92 1 -10.836 -9.22788 20.0046 -0.0013503 -0.011101 -6.3236e-05
93 1 -10.8132 -6.78591 20.0075 0.000496511 0.000500692 -0.000106667
101 1 -9.52473 -11.6468 19.9999 0 0 0
102 1 -8.74136 -10.5124 19.9999 0 0 0
103 1 -9.4013 -9.17916 20.0119 0.00570145 0.00276957 8.52752e-06
104 1 -8.65939 -7.97114 20.022 0.000457518 -0.00649969 -0.000202841
105 1 -9.37289 -6.69237 20.0199 0.00345148 0.00378025 -0.000351422
121 1 -7.27873 -10.5146 19.9999 0 0 0
122 1 -7.20833 -8.01143 20.0144 0.00436249 -0.00532315 -0.00063959
131 1 -6.50232 -11.6488 19.9999 0 0 0
132 1 -6.50579 -9.23137 20.0049 -0.00353999 -0.00182701 -0.000548396
133 1 -6.50849 -6.78332 19.9863 0.00291192 -0.00858417 -0.0011167
141 1 -5.25854 -11.6473 19.9999 0 0 0
142 1 -4.47674 -10.5145 19.9999 0 0 0
143 1 -5.14072 -9.19356 19.9932 -0.00619375 -0.00437039 -0.00055238
144 1 -4.38221 -7.98491 19.9602 -0.000710101 -0.00825997 -0.000887207
145 1 -5.08601 -6.76414 19.9509 0.00510394 -0.00399149 -0.00111279
161 1 -3.01281 -10.5144 19.9999 0 0 0
162 1 -2.93033 -7.92893 19.9301 0.0024977 -0.00703125 -0.00077792
171 1 -2.23133 -11.6474 19.9999 0 0 0
172 1 -2.27474 -9.20843 19.9652 0.00821026 -0.000484785 -0.000500758
173 1 -2.11359 -6.74362 19.8455 -0.00918597 0.00638011 -0.0023347
181 1 -0.986751 -11.6474 19.9999 0 0 0
182 1 -0.205108 -10.5143 19.9999 0 0 0
183 1 -0.879254 -9.18539 19.9599 0.00866043 -0.00749306 2.89915e-05
184 1 -0.0313896 -8.00259 19.8987 0.00408283 0.00288887 -0.00156293
185 1 -0.612205 -6.70517 19.801 -0.00655456 0.00197148 -0.00368467
201 1 1.25901 -10.5143 19.9999 0 0 0
202 1 1.42242 -8.07082 19.9082 0.00523267 0.00250499 -0.00105542
211 1 2.0406 -11.6474 19.9999 0 0 0
212 1 2.03889 -9.29937 19.9672 -0.000272149 0.00520843 -0.000218128
213 1 2.29498 -6.90472 19.846 0.00663456 0.0013991 -0.00222146
221 1 3.28523 -11.6473 19.9999 0 0 0
222 1 4.06705 -10.5143 19.9999 0 0 0
223 1 3.44028 -9.24951 19.9723 -0.00596056 0.00226133 -0.000210906
224 1 4.32327 -8.09859 19.9453 -0.00544104 0.00257996 -0.000645378
225 1 3.7118 -6.86467 19.8837 -0.00119809 -0.000878727 -0.00127115
241 1 5.53108 -10.5143 19.9999 0 0 0
242 1 5.73347 -8.07198 19.9616 0.000630185 -0.00190962 -0.000192908
251 1 6.31174 -11.6474 19.9999 0 0 0
252 1 6.31277 -9.32117 19.9888 0.00128784 0.00155173 -8.61511e-05
253 1 6.49636 -6.85508 19.9487 0.000805688 -0.00377914 -0.000704478
261 1 7.55524 -11.6498 19.9999 0 0 0
263 1 7.72593 -9.24956 19.9935 0.000402584 -0.00362167 -0.000151945
265 1 7.90126 -6.7776 19.9674 -0.00385393 0.0021829 -0.000639456
262 1 8.33779 -10.5154 19.9999 0 0 0
264 1 8.46237 -8.02289 19.9856 -0.00736386 -0.00379486 -0.000344737
281 1 9.79556 -10.5245 19.9999 0 0 0
282 1 9.85295 -7.9862 19.994 -0.00287046 -0.00280977 -0.000292139
291 1 10.5816 -11.6418 19.9999 0 0 0
292 1 10.4947 -9.22964 19.9993 -0.00106054 -0.00443492 -8.0735e-05
293 1 10.5456 -6.7301 19.9931 -0.00639081 -0.00802033 -0.000194119
301 1 11.8019 -11.7522 19.9999 0 0 0
302 1 12.7161 -10.5156 19.9999 0 0 0
303 1 11.8934 -9.22642 19.9999 0 0 0
304 1 12.655 -8.00627 19.9999 0 0 0
305 1 11.8992 -6.77596 19.9999 0 0 0
321 1 14.087 -10.4984 19.9999 0 0 0
322 1 14.0714 -8.01298 19.9999 0 0 0
66 1 -13.0658 -5.54976 19.9999 0 0 0
67 1 -13.7179 -4.30197 19.9999 0 0 0
68 1 -13.0406 -3.0891 19.9999 0 0 0
69 1 -13.6883 -1.86008 19.9999 0 0 0
70 1 -13.0424 -0.636745 19.9999 0 0 0
83 1 -11.5387 -5.54743 19.9999 0 0 0
84 1 -11.5566 -3.09089 19.9999 0 0 0
85 1 -11.5625 -0.637245 19.9999 0 0 0
94 1 -10.812 -4.31467 20.0054 0.00467394 0.00466531 -0.000445744
95 1 -10.7929 -1.82857 20.003 -0.011863 -0.000421815 -0.000768124
106 1 -8.63994 -5.45202 20.0124 0.00738542 -0.00782517 -0.000560917
107 1 -9.34137 -4.21403 20.0034 0.00107147 -0.00316083 -0.000858417
108 1 -8.62382 -2.99664 19.9826 0.00171934 -0.0168678 -0.00172133
109 1 -9.31346 -1.72778 19.9893 -0.00277503 -0.00604145 -0.00154413
110 1 -8.40388 -0.575978 19.9589 0.000539444 -0.00194677 -0.00254862
4 1 -3.65499 -0.742791 16.361 -0.0258764 -0.00204075 0.0411275
12 1 -0.0148016 -3.76347 16.741 0.0017989 -0.0149481 0.0283357
60 1 -2.46695 -2.75272 16.3984 -0.00391935 -0.0117103 0.0400759
123 1 -7.236 -5.54271 19.9893 0.00653096 -0.00587988 -0.00126074
19 1 -3.33478 -1.02451 17.754 -0.0181619 -0.00515479 0.0414118
58 1 -2.5784 -2.27791 17.7035 0.000215125 -0.000153011 0.0421357
125 1 -6.93123 -0.642178 19.8724 -0.00205817 -0.0043251 -0.0021558
11 1 -0.00496932 -3.24877 18.0883 -0.00676627 0.00305595 0.0334999
34 1 -1.20523 -2.41186 18.1781 0.00334792 -0.00156639 0.0224289
48 1 -0.680388 -1.07845 18.2217 -0.0114118 0.000409197 0.0154052
124 1 -7.16305 -3.02251 19.9304 -0.00626935 -0.00585639 -0.00196008
134 1 -6.49403 -4.28825 19.9305 0.00507375 -0.00501069 -0.00220417
135 1 -6.23692 -1.91242 19.8353 -0.00565782 -0.0101515 -0.0024633
146 1 -4.34348 -5.5652 19.8681 0.00230219 -0.00244729 -0.0022092
147 1 -5.06095 -4.37878 19.8466 0.00149564 -0.000831496 -0.00285495
148 1 -4.13915 -3.27258 19.739 0.00813354 0.00393345 0.00139037
149 1 -4.75802 -1.97717 19.7129 -0.00561207 0.00693007 -0.000434833
150 1 -4.00499 -0.698483 19.752 0.0198775 0.00410558 0.0171265
163 1 -2.8754 -5.56867 19.7817 -0.00906855 0.00949254 -0.00319768
164 1 -2.64319 -3.22631 19.8488 -0.0014837 0.0152967 0.0189309
165 1 -2.61287 -0.662319 20.2403 0.0053651 -0.00236341 0.0364046
174 1 -1.96014 -4.43212 19.7363 7.24801e-05 0.00641798 0.00179735
175 1 -1.9463 -1.98144 20.3163 0.000704791 0.0113978 0.0283417
187 1 -0.483154 -4.36175 19.8405 0.0138096 0.0179069 0.0176306
188 1 0.200223 -3.13627 20.2809 0.0164473 -0.00410563 0.0234643
189 1 -0.507597 -1.80608 20.4697 0.00752313 0.00922387 0.0206977
190 1 0.149206 -0.582008 20.9718 0.0131791 0.00679739 0.022427
2 1 3.64706 -0.727936 16.3727 0.0271899 -0.00562364 0.0436094
59 1 2.43961 -2.75791 16.4188 0.00414076 -0.0108038 0.0389669
186 1 0.279188 -5.57252 19.7226 -0.00418442 0.00884972 -0.00194475
15 1 3.31327 -1.03005 17.7442 0.0161993 -0.0083447 0.0412329
57 1 2.59966 -2.28179 17.7232 0.0139504 0.00144397 0.0411219
33 1 1.17249 -2.383 18.1275 -0.00435129 -0.00374412 0.0211856
46 1 0.668035 -1.08062 18.2247 -0.00542652 0.00714698 0.00779413
203 1 1.73851 -5.59328 19.7478 0.0047526 0.00800288 -0.00331853
204 1 1.63936 -3.13615 20.1964 0.00572419 -0.00689831 0.0310758
205 1 1.61193 -0.611192 20.7577 -0.000421464 0.00104971 0.0203098
214 1 2.47577 -4.32746 19.7576 0.00148363 0.00857565 0.0110862
215 1 2.32727 -1.84779 20.3238 0.00749342 0.0018281 0.03037
226 1 4.4642 -5.63828 19.8427 -0.00368693 -0.00755676 -0.00272887
227 1 3.88899 -4.34676 19.7517 -0.00719724 -0.0034747 -0.00331549
228 1 4.55782 -3.04585 19.7313 -0.00231069 0.00381844 -0.00114138
229 1 3.72741 -1.82915 19.8642 -0.00473489 0.00374702 0.0175904
230 1 4.46667 -0.584144 19.8016 -0.00374988 0.000298016 0.00969549
243 1 5.85518 -5.59115 19.8955 0.00708795 -0.00569906 -0.00106957
244 1 5.97301 -3.05305 19.8043 0.0082213 -0.00791322 -0.00299355
245 1 5.96421 -0.613922 19.7474 0.00571488 -0.0018022 -0.00318602
254 1 6.52607 -4.33398 19.8797 -0.00187547 -0.00150288 -0.00205606
255 1 6.60009 -1.82268 19.8158 -0.00211908 -0.00311061 -0.00316163
269 1 7.97548 -1.83455 19.8819 0.00501026 -0.00838595 -0.0012837
267 1 7.88567 -4.30263 19.9245 -0.0026184 -0.000824944 -0.000906959
266 1 8.54328 -5.53534 19.9598 0.00583641 -0.00421863 -0.000436157
268 1 8.5666 -3.08676 19.9193 0.00112309 -0.00744031 -0.000716246
270 1 8.69482 -0.634656 19.8949 -0.00465886 -0.0108211 -0.00130352
283 1 9.89577 -5.47062 19.9792 0.00495773 -0.0062891 -7.37778e-05
284 1 9.89523 -3.01935 19.9537 -0.00902823 0.00142049 -0.000621566
285 1 10.0322 -0.618317 19.9409 -0.00938329 0.00429508 -0.000949057
294 1 10.5289 -4.22456 19.9806 0.00335933 -0.00434979 -8.51471e-06
295 1 10.6523 -1.83709 19.9674 -0.00313587 0.00271945 -0.000353166
306 1 12.6496 -5.55341 19.9999 0 0 0
307 1 11.9041 -4.32686 19.9999 0 0 0
308 1 12.647 -3.09734 19.9999 0 0 0
309 1 11.9037 -1.86828 19.9999 0 0 0
310 1 12.6457 -0.637745 19.9999 0 0 0
323 1 14.0539 -5.56516 19.9999 0 0 0
324 1 14.0472 -3.10129 19.9999 0 0 0
325 1 14.0438 -0.638188 19.9999 0 0 0
71 1 -13.6826 0.591886 19.9999 0 0 0
72 1 -13.0424 1.82079 19.9999 0 0 0
73 1 -13.6895 3.04359 19.9999 0 0 0
74 1 -13.0413 4.27397 19.9999 0 0 0
75 1 -13.7195 5.48914 19.9999 0 0 0
86 1 -11.5623 1.82169 19.9999 0 0 0
87 1 -11.5564 4.27485 19.9999 0 0 0
96 1 -10.8117 0.582687 20.0027 0.00267774 0.000366365 -0.000848883
97 1 -10.84 3.02826 20.0036 -0.000547469 -0.00143134 -0.000608486
98 1 -10.8534 5.46469 20.0063 -0.00308217 0.0087401 -0.000102568
111 1 -9.30687 0.577622 19.9875 -0.0112633 -0.00217186 -0.00170232
112 1 -8.52428 1.79829 19.9716 -0.00371941 0.0110553 -0.00191856
113 1 -9.36398 2.95612 19.997 -0.00264965 0.00785958 -0.00112022
114 1 -8.66537 4.18818 20.0011 0.00296562 0.00442679 -0.000837675
115 1 -9.39502 5.41247 20.0141 0.00527705 0.00179272 -0.000302948
17 1 -3.20031 1.85825 16.6143 -0.023364 0.00568691 0.0353065
30 1 -1.18866 3.47077 16.2152 -0.00598172 0.0135988 0.0364372
47 1 -0.718273 3.3305 17.5466 -0.00516167 0.00970088 0.0382099
126 1 -7.04579 1.81189 19.8984 -0.00362752 0.000734838 -0.00203531
41 1 -2.91906 1.73274 17.995 -0.0076321 -0.00226847 0.037823
6 1 -0.70399 1.25966 18.3537 -0.000459912 -0.0122423 0.00407248
23 1 -1.58445 2.35887 18.1508 -0.001983 -0.00343495 0.0215256
24 1 -1.38532 0.115033 18.179 -0.00179723 -0.0117838 0.0210132
43 1 -2.81248 0.267197 18.1716 0.00179166 -0.00324427 0.026523
127 1 -7.21797 4.25934 19.9621 0.00925914 0.00863378 -0.0019116
136 1 -6.18134 0.595685 19.8035 -0.00071066 0.00575888 -0.0027173
137 1 -6.35945 3.06654 19.8797 -0.00705501 0.00328243 -0.00184695
138 1 -6.5415 5.54208 19.9631 0.0079947 0.00229451 -0.00132708
151 1 -4.70217 0.624865 19.693 0.00416514 0.000588583 0.000791046
152 1 -4.04793 1.93063 19.7487 0.0194363 -0.00406751 0.0125385
153 1 -4.90864 3.15896 19.7659 0.00195884 -0.00718012 -0.00218606
154 1 -4.2895 4.46904 19.8001 0.00739472 -0.00500799 -0.00320962
155 1 -5.10756 5.65073 19.9098 0.00542812 0.00867661 -0.00166629
166 1 -2.61465 1.93494 20.1114 0.00284134 -0.00403704 0.0317838
167 1 -2.84307 4.44453 19.7317 0.000276892 -0.0138153 0.00370443
176 1 -1.93555 0.648877 20.4523 0.00704117 -0.00787693 0.0201174
177 1 -1.95541 3.2427 20.0298 0.00596833 -0.0145226 0.030034
178 1 -2.03041 5.6046 19.7589 0.000315105 -0.0050098 -0.00392155
191 1 -0.556093 0.681049 20.9582 0.010237 -0.000656881 0.0329474
193 1 -0.467524 3.12248 20.1153 0.0155279 -0.00756958 0.0346731
195 1 -0.565025 5.63104 19.7206 0.00158544 -0.0101649 -0.00369521
13 1 3.16866 1.84115 16.6228 0.0214219 0.00312374 0.0468743
29 1 1.16649 3.45642 16.2433 0.00578722 0.0088621 0.0328863
192 1 0.1954 1.94988 20.705 0.00826705 -0.000903323 0.0336327
194 1 0.219724 4.40776 19.7389 0.00946186 -0.00844072 0.00814105
45 1 0.712644 3.32021 17.5339 0.00344859 0.00984773 0.0384858
37 1 2.8668 1.72006 17.9979 0.00293462 0.00466463 0.0364559
5 1 0.646391 1.25192 18.3712 0.00965414 -0.00229517 0.0196365
21 1 1.585 2.35776 18.2148 0.00353599 -0.0112482 0.0239135
22 1 1.37592 0.101119 18.3176 -0.00499323 0.00420304 0.0144122
39 1 2.76176 0.253457 18.2278 0.00510545 -0.00252583 0.02975
206 1 1.65324 1.94717 20.5732 0.00500383 -5.62372e-06 0.0256278
207 1 1.69368 4.44227 19.7439 0.0119644 -0.00796188 0.00723099
216 1 2.37774 0.660902 20.6323 0.0115325 -0.00115978 0.0262818
217 1 2.36709 3.12842 20.0435 -0.00724644 -0.00112447 0.031648
218 1 2.41126 5.68997 19.7618 0.00438144 0.00472895 -0.00284165
231 1 3.70399 0.660974 20.0819 0.00887669 0.00247255 0.0252226
232 1 4.41752 1.86083 19.7695 0.000837163 0.00340595 0.00669498
233 1 3.74493 3.16341 19.7754 -0.00763625 -0.00349856 0.00461905
234 1 4.4811 4.39006 19.7758 -0.00465974 -0.00129901 -0.00382693
235 1 3.8344 5.66859 19.821 -0.000282957 -0.00374642 -0.00290046
246 1 5.89797 1.77857 19.7532 -0.00505662 0.0058509 -0.00388141
247 1 5.89461 4.31023 19.846 -0.00568828 0.00709954 -0.00279049
256 1 6.67506 0.573192 19.8081 0.00129197 0.00116076 -0.00285505
257 1 6.54094 3.02486 19.8347 0.0046129 0.003283 -0.00268297
258 1 6.49503 5.57909 19.9117 -0.00306085 0.00687122 -0.0011566
271 1 8.05482 0.566782 19.8732 0.0135618 -0.00424717 -0.00127187
273 1 7.94366 3.01677 19.8995 0.0133491 0.0125284 -0.00062295
272 1 8.63316 1.79556 19.9033 -0.00451174 0.00647314 -0.00117704
274 1 8.55197 4.2342 19.938 0.00355352 0.0191359 -0.000262162
275 1 7.87942 5.48763 19.9436 -0.000327811 0.00547344 -0.000574459
286 1 9.94862 1.77186 19.9465 -0.00241356 -0.000325723 -0.000494712
287 1 9.88146 4.22036 19.9677 0.00791713 0.00551912 -9.38075e-05
296 1 10.6122 0.560798 19.9631 -0.000521403 0.00323684 -0.000304071
297 1 10.5463 2.98918 19.9744 -0.000104435 -0.00131329 -6.44643e-05
298 1 10.5422 5.47568 19.9875 0.00434476 0.00605114 -5.6894e-05
311 1 11.9034 0.592385 19.9999 0 0 0
312 1 12.6457 1.82255 19.9999 0 0 0
313 1 11.9038 3.05326 19.9999 0 0 0
314 1 12.6466 4.28301 19.9999 0 0 0
315 1 11.9041 5.51379 19.9999 0 0 0
326 1 14.0439 1.82305 19.9999 0 0 0
327 1 14.0468 4.28589 19.9999 0 0 0
76 1 -13.0678 6.73987 19.9999 0 0 0
77 1 -13.743 7.99662 19.9999 0 0 0
78 1 -13.076 9.22053 19.9999 0 0 0
79 1 -13.6781 10.6114 19.9999 0 0 0
80 1 -13.0646 11.9529 19.9999 0 0 0
88 1 -11.5395 6.7281 19.9999 0 0 0
89 1 -11.5535 9.18478 19.9999 0 0 0
90 1 -11.7099 11.6077 19.9999 0 0 0
99 1 -10.8371 7.99857 20.0058 -0.000328702 -0.00312328 7.10165e-06
100 1 -10.9027 10.4758 19.9999 0 0 0
116 1 -8.67091 6.65912 20.0192 0.00854276 0.0010238 -0.000155647
117 1 -9.35178 7.93201 20.0174 0.00926526 0.00430392 -7.3589e-05
118 1 -8.64469 9.17174 20.0129 0.000526618 -0.00585393 -8.32777e-05
119 1 -9.37207 10.4804 19.9999 0 0 0
120 1 -8.62688 11.6228 19.9999 0 0 0
130 1 -7.38724 11.6024 19.9999 0 0 0
128 1 -7.25512 6.7542 20.0057 0.0157316 0.000641216 -0.000945475
129 1 -7.22627 9.156 20.0098 -0.00399053 0.00755267 -0.000309102
139 1 -6.44659 7.97965 19.9997 -0.000732968 0.00254938 -0.000550323
140 1 -6.60892 10.469 19.9999 0 0 0
156 1 -4.29822 6.7995 19.9229 0.00588693 0.0137351 -0.000625209
157 1 -4.99663 8.03262 19.9761 0.000217599 0.00811035 -0.000484621
158 1 -4.31263 9.27203 19.9845 0.000880924 0.00977252 -0.00049184
159 1 -5.14663 10.4689 19.9999 0 0 0
160 1 -4.36691 11.6023 19.9999 0 0 0
168 1 -2.87505 6.7393 19.8676 0.00286093 0.000147169 -0.00198063
169 1 -2.92361 9.19328 19.9764 0.00563252 0.000922658 -0.000231716
170 1 -3.12269 11.6018 19.9999 0 0 0
179 1 -2.18659 7.9726 19.9204 0.005113 -0.00266634 -0.000881175
180 1 -2.34103 10.4689 19.9999 0 0 0
196 1 0.140991 6.8438 19.8193 0.00342378 -0.00623826 -0.00312575
197 1 -0.75628 7.95405 19.9006 -0.00394701 -0.000773169 -0.000669159
198 1 -0.157749 9.21635 19.9588 -0.00236479 -0.00367466 -0.000285826
199 1 -0.876963 10.4688 19.9999 0 0 0
200 1 -0.0953724 11.6018 19.9999 0 0 0
208 1 1.56934 6.87801 19.8345 0.00851224 0.00416184 -0.0021137
209 1 1.25227 9.24313 19.9574 -0.0075623 -0.00188174 -0.000265454
210 1 1.14924 11.6018 19.9999 0 0 0
219 1 2.16748 8.13105 19.9141 0.000811453 0.00506821 -0.000589954
220 1 1.93091 10.4688 19.9999 0 0 0
236 1 4.4048 6.95716 19.9001 -0.00798739 -0.00621405 -0.00167408
237 1 3.58762 8.13884 19.9306 -0.00281607 -0.0001944 -0.000548498
238 1 4.23877 9.3241 19.9767 -0.0016021 0.00468775 0.000210917
239 1 3.39506 10.4687 19.9999 0 0 0
240 1 4.17656 11.6018 19.9999 0 0 0
248 1 5.81067 6.86992 19.9279 -0.00507678 0.00199572 -0.000820687
249 1 5.61636 9.20933 19.9805 -0.00278534 -0.00272477 -6.09386e-05
250 1 5.4212 11.6017 19.9999 0 0 0
259 1 6.43932 8.08848 19.9673 0.000716766 -0.00508726 -0.000418326
260 1 6.20335 10.4685 19.9999 0 0 0
277 1 7.80374 7.98821 19.9778 0.00316603 -0.00475436 -0.000389076
276 1 8.51016 6.75104 19.9708 0.00156863 0.00225024 -0.000454144
278 1 8.39311 9.24877 19.9939 -0.000456471 -0.00429704 -0.000184036
279 1 7.66711 10.4687 19.9999 0 0 0
280 1 8.44529 11.6024 19.9999 0 0 0
288 1 9.88338 6.70259 19.9866 0.00160993 0.00466373 -0.00018626
289 1 9.80101 9.18122 19.9977 -0.00273784 -0.000735735 -0.000204871
290 1 9.6873 11.6101 19.9999 0 0 0
299 1 10.5233 7.96303 19.9965 0.00229028 -0.00295781 -0.000192792
300 1 10.4752 10.4755 19.9999 0 0 0
316 1 12.6473 6.74288 19.9999 0 0 0
317 1 11.9051 7.97805 19.9999 0 0 0
318 1 12.6583 9.19198 19.9999 0 0 0
319 1 11.9246 10.4937 19.9999 0 0 0
320 1 12.7709 11.5297 19.9999 0 0 0
328 1 14.0456 6.75188 19.9999 0 0 0
329 1 14.0237 9.17042 19.9999 0 0 0
330 1 13.9415 11.792 19.9999 0 0 0
