ITEM: TIMESTEP
46300
ITEM: NUMBER OF ATOMS
330
ITEM: BOX BOUNDS pp pp pp
-1.4715758017245314e+01 1.5057610017245315e+01
-1.2710055654020760e+01 1.2664508654020761e+01
-5.0001035148846022e+01 1.0000103514884636e+02
ITEM: ATOMS id type x y z vx vy vz
8 1 -0.983334 -0.93414 -1.40534 0.00166181 0.0123393 -0.0214864
28 1 -1.6881 -2.05404 -0.930237 -0.00855341 0.00472714 -0.0211756
44 1 -2.90224 -1.37775 -0.437263 0.0100407 -0.0062008 -0.0357912
52 1 -1.28035 -3.11741 -0.0428534 -0.00161359 -0.00643361 -0.0294129
20 1 -3.61702 -1.86295 0.678421 0.00416569 -0.00667375 -0.0353893
50 1 2.27019e-05 -2.9496 0.535011 -0.00669168 -0.00330762 -0.0292539
36 1 -1.94485 -3.71699 1.12895 -0.0163577 0.00337054 -0.0297997
4 1 -4.41252 -1.18297 1.60934 -0.0155219 0.0097174 -0.0387549
60 1 -3.23294 -3.0521 1.40056 -0.00326252 0.000958463 -0.0326647
12 1 -1.0623 -3.97723 2.25017 0.000127493 0.00169426 -0.0455169
19 1 -4.41012 -1.73023 2.86206 0.0110082 0.00453487 -0.028669
58 1 -3.73007 -2.88933 2.76727 -0.00139256 -0.0073383 -0.0467191
11 1 -1.54102 -3.69795 3.62115 0.000914801 0.00194691 -0.0388609
35 1 0.255507 -3.60167 1.80837 -0.000171059 -0.0190371 -0.0416462
7 1 0.297033 -0.900093 -0.845028 0.000897053 -0.00777493 -0.0411652
26 1 0.750197 -1.90302 0.09486 -0.0161514 0.0192218 -0.029232
40 1 1.52512 -1.34405 1.12233 -0.00842331 0.00142678 -0.0389876
16 1 1.86878 -1.94974 2.38954 -0.00672243 0.0147074 -0.0246137
59 1 1.24451 -3.18252 2.77127 0.0235811 -0.00369091 -0.034616
2 1 2.25378 -1.11006 3.51194 -0.00919661 -0.00734874 -0.0295677
42 1 -2.97548 -0.0423414 -0.745159 0.00558382 -0.00565928 -0.0250121
27 1 -1.71737 0.300208 -1.32933 0.0113283 0.00152649 -0.0266133
51 1 -1.06996 1.53431 -0.82908 -0.00694332 0.0037674 -0.0308776
32 1 -1.77805 2.17909 0.246782 -0.000839048 -0.00463289 -0.0316273
18 1 -3.47582 0.736297 0.375902 -0.00841642 0.0038 -0.0287886
10 1 -0.934492 2.5663 1.24298 0.00721498 0.00217816 -0.0445089
56 1 -3.0561 1.93567 0.772481 -0.00510205 -0.00792177 -0.020766
3 1 -4.33328 0.242526 1.44307 -0.0177088 -0.00431019 -0.0336594
54 1 -3.57378 2.22893 2.10257 -0.000274805 0.0113692 -0.0457579
17 1 -4.51253 1.19406 2.55149 -0.0158743 -0.00539949 -0.0373993
9 1 -1.31899 3.02594 2.59259 -0.00419668 0.000221595 -0.0279572
30 1 -2.69023 2.89242 3.09551 0.00637707 -0.0085848 -0.0303376
29 1 -0.393423 2.81943 3.67876 -0.00822712 0.00673926 -0.041619
38 1 1.7608 -0.0122323 0.820356 0.00351513 -0.00707776 -0.0194255
25 1 0.909321 0.280774 -0.302564 0.0140838 0.000414903 -0.0416875
49 1 0.236313 1.40556 -0.308031 0.00829419 9.70466e-05 -0.0327834
31 1 0.44812 2.33675 0.8485 -0.00512776 0.00950201 -0.0163098
14 1 1.99174 0.81671 1.98441 0.00203003 0.00788985 -0.0310367
55 1 1.38775 2.16612 1.96693 0.00635745 -0.00880493 -0.0328773
1 1 2.15358 0.324049 3.29676 0.00197003 0.00240706 -0.0320314
53 1 1.06653 2.31728 3.40051 0.00860595 -0.00714209 -0.0295453
34 1 -2.81106 -3.19948 3.91135 0.00408994 0.0101479 -0.0393591
43 1 -4.55281 -0.857124 3.98096 -0.00435803 -0.00111233 -0.0292683
33 1 -0.650385 -3.15893 4.46564 0.000151472 -0.00484306 -0.0411641
24 1 -3.69227 -1.21888 5.12896 0.00236264 -0.000366145 -0.0501195
48 1 -2.85628 -2.42483 5.03436 -0.00722849 -0.00630715 -0.0253188
46 1 -1.42054 -2.36103 5.31435 -0.00961655 -0.00537356 -0.0352962
22 1 -0.881825 -1.12272 5.71254 -0.016048 0.0145712 -0.024415
15 1 1.32629 -1.63124 4.57976 -0.00169025 0.0085642 -0.0384766
57 1 0.700321 -2.84716 4.06917 1.26126e-05 -0.0118336 -0.0344881
39 1 0.392573 -0.839113 5.30552 0.00834814 0.00579434 -0.0229208
47 1 -2.74669 2.29051 4.44274 -0.00836208 -0.007937 -0.0427199
41 1 -4.52829 0.576697 3.86641 0.00201121 0.00843295 -0.0352367
45 1 -1.27124 2.40789 4.77263 -0.0106575 0.00161455 -0.0349571
23 1 -3.59961 1.16216 4.82746 0.00655391 -0.0105553 -0.0502524
6 1 -3.06011 0.036049 5.55212 0.00555372 -0.00523312 -0.0268376
5 1 -1.642 0.0430759 5.85907 0.00420789 -0.0112352 -0.0338761
21 1 -0.898687 1.13503 5.39317 -0.0084422 -0.0124871 -0.0353802
13 1 1.41457 1.26476 4.20559 0.000471768 -0.00399521 -0.0347741
37 1 0.381411 0.55664 5.01459 -0.0146693 0.0027442 -0.0512953
61 1 -13.6674 -11.9461 19.9999 0 0 0
62 1 -13.1228 -10.6724 19.9999 0 0 0
63 1 -13.7825 -9.34696 19.9999 0 0 0
64 1 -13.0772 -8.00396 19.9999 0 0 0
65 1 -13.7542 -6.79742 19.9999 0 0 0
81 1 -11.507 -10.5408 19.9999 0 0 0
82 1 -11.5331 -8.01671 19.9999 0 0 0
91 1 -10.7591 -11.6424 19.9999 0 0 0
92 1 -10.9073 -9.23601 19.7157 0.00854885 0.00331496 0.000990092
93 1 -10.8341 -6.79439 19.8864 -0.00588298 -0.00670827 -0.00623729
101 1 -9.52473 -11.6468 19.9999 0 0 0
102 1 -8.74136 -10.5124 19.9999 0 0 0
103 1 -9.39967 -9.29073 19.6773 -0.00601943 0.00720977 -0.00625505
104 1 -8.71259 -8.04335 19.7178 -0.00122106 0.00371692 0.00457118
105 1 -9.38649 -6.83553 19.763 -0.00803586 -0.00557356 0.00408153
121 1 -7.27873 -10.5146 19.9999 0 0 0
122 1 -7.23565 -8.03044 19.7622 -0.0113957 -0.0010425 0.00989278
131 1 -6.50232 -11.6488 19.9999 0 0 0
132 1 -6.55939 -9.22012 20.0019 -0.00599557 0.00556918 -2.25522e-05
141 1 -5.25854 -11.6473 19.9999 0 0 0
142 1 -4.47674 -10.5145 19.9999 0 0 0
143 1 -5.11664 -9.2294 20.1989 0.00712423 -0.00703337 0.00882458
144 1 -4.37737 -7.99753 20.2877 -0.00920184 -0.00151584 0.0344349
161 1 -3.01281 -10.5144 19.9999 0 0 0
162 1 -2.97719 -8.04223 20.4271 -0.000864052 -0.00411918 0.0214554
171 1 -2.23133 -11.6474 19.9999 0 0 0
172 1 -2.26221 -9.18769 20.0479 -0.0110151 0.00054173 0.00508323
181 1 -0.986751 -11.6474 19.9999 0 0 0
182 1 -0.205108 -10.5143 19.9999 0 0 0
183 1 -0.866505 -9.18738 20.197 0.000482458 -0.011829 -0.00992939
184 1 -0.190911 -8.03874 20.5901 0.00351146 -0.0032404 0.00448907
133 1 -6.46551 -6.84351 19.5078 0.00163512 -0.00252387 0.022715
145 1 -5.05938 -6.79174 19.7613 -0.000774358 -0.00183655 0.0236994
173 1 -2.30468 -6.78378 20.5849 -0.00243891 -0.00694075 0.0103656
185 1 -0.857621 -6.7835 20.833 0.000393059 0.00302641 0.00546092
201 1 1.25901 -10.5143 19.9999 0 0 0
202 1 1.24884 -8.15143 20.687 0.00117192 -0.0103684 0.00452109
211 1 2.0406 -11.6474 19.9999 0 0 0
212 1 1.99754 -9.23492 20.3325 -0.0101779 -0.00252626 0.00539869
221 1 3.28523 -11.6473 19.9999 0 0 0
222 1 4.06705 -10.5143 19.9999 0 0 0
223 1 3.37326 -9.23018 20.1724 -0.006938 -0.00440781 0.0283275
224 1 4.15747 -8.0155 20.1662 0.00501396 -0.00764259 0.0154078
241 1 5.53108 -10.5143 19.9999 0 0 0
242 1 5.49073 -7.97084 19.8518 0.00895777 -0.00402287 0.00960711
251 1 6.31174 -11.6474 19.9999 0 0 0
252 1 6.16314 -9.22169 19.9859 -0.00246563 0.00267345 0.00819927
261 1 7.55524 -11.6498 19.9999 0 0 0
253 1 6.20237 -6.69722 19.8698 0.0082845 0.00424489 0.0167979
225 1 3.35634 -6.83437 20.5729 0.000650653 0.00417916 0.019704
213 1 2.05314 -6.90014 20.8625 -0.00526639 0.00534267 0.0103785
265 1 7.62342 -6.60403 19.7029 0.00296854 -0.00243087 0.00894375
263 1 7.62872 -9.18373 19.9477 4.65546e-06 -0.0106761 0.00810586
262 1 8.33779 -10.5154 19.9999 0 0 0
264 1 8.2216 -7.94531 19.7348 0.00843752 0.00360681 0.00241302
281 1 9.79556 -10.5245 19.9999 0 0 0
282 1 9.71519 -7.9599 19.8203 -0.00456328 -0.0128988 0.00167331
291 1 10.5816 -11.6418 19.9999 0 0 0
292 1 10.4772 -9.18491 19.859 -0.000235395 -0.0206423 -0.00842714
293 1 10.4242 -6.7438 19.8662 -0.00661594 -0.0107825 -0.01066
301 1 11.8019 -11.7522 19.9999 0 0 0
302 1 12.7161 -10.5156 19.9999 0 0 0
303 1 11.8934 -9.22642 19.9999 0 0 0
304 1 12.655 -8.00627 19.9999 0 0 0
305 1 11.8992 -6.77596 19.9999 0 0 0
321 1 14.087 -10.4984 19.9999 0 0 0
322 1 14.0714 -8.01298 19.9999 0 0 0
66 1 -13.0658 -5.54976 19.9999 0 0 0
67 1 -13.7179 -4.30197 19.9999 0 0 0
68 1 -13.0406 -3.0891 19.9999 0 0 0
69 1 -13.6883 -1.86008 19.9999 0 0 0
70 1 -13.0424 -0.636745 19.9999 0 0 0
83 1 -11.5387 -5.54743 19.9999 0 0 0
84 1 -11.5566 -3.09089 19.9999 0 0 0
85 1 -11.5625 -0.637245 19.9999 0 0 0
94 1 -10.7627 -4.41002 19.7222 0.00442661 0.00702994 0.0096801
95 1 -10.8821 -1.89923 20.1953 -0.00598486 1.29797e-05 -0.00126673
106 1 -8.65081 -5.64856 19.4313 0.015775 -0.0076903 0.00287711
107 1 -9.37179 -4.32037 19.292 0.0066174 -0.00210835 0.00924626
108 1 -8.65568 -3.05081 19.3866 0.0084982 -0.0216196 0.0128105
109 1 -9.37817 -1.88781 19.9228 0.0102189 0.00944377 0.00361388
110 1 -8.61872 -0.669485 19.8838 -0.00093224 0.00397536 0.0184703
123 1 -7.24218 -5.5737 19.1717 0.00722527 -0.00679316 0.00709043
124 1 -7.17916 -3.04806 19.3826 -0.00318731 -0.00472095 0.0288492
125 1 -7.10264 -0.643539 19.5529 0.000604577 -0.00602472 0.0382106
186 1 -0.125907 -5.58072 20.9067 -0.00767287 -0.00287617 0.029696
134 1 -6.50094 -4.30577 19.2055 -0.0032156 0.00715581 0.00381615
135 1 -6.36182 -1.77341 19.3536 0.000960435 -0.0111958 0.0417213
146 1 -4.30766 -5.41252 19.9484 -0.0111139 -0.00398815 0.0180226
147 1 -4.9825 -4.35769 19.3893 0.00795691 0.000437006 0.0155409
163 1 -2.92998 -5.50441 20.3213 -0.00753435 0.00888013 0.0127269
148 1 -4.27018 -3.08553 19.3773 -0.00181801 -0.00498727 0.0143678
149 1 -4.82136 -1.66532 19.2556 0.00608557 -0.000654512 0.0246012
174 1 -2.20008 -4.25724 20.2138 0.00399271 0.00142802 0.000806249
164 1 -2.94706 -3.16543 19.7152 -0.00745318 0.00372566 0.0124003
187 1 -0.878832 -4.31027 20.5349 -0.00307954 -0.00305381 0.0151882
150 1 -4.04203 -0.511953 18.8817 -0.00701554 -0.00208929 0.0135003
175 1 -2.12803 -1.92683 19.608 -0.0166301 0.015922 0.00744685
165 1 -2.58705 -0.65848 19.2083 -0.00644094 0.00347643 -0.00450823
189 1 -0.815501 -1.86861 20.1432 0.00188852 0.0199683 0.0121656
188 1 -0.214456 -3.08324 20.5565 -0.0154611 -0.00369702 0.00518332
190 1 -0.0216179 -0.607744 19.9594 0.00682014 0.00921307 0.00305604
243 1 5.39251 -5.53619 20.0869 -0.00988716 -0.00538272 0.0135499
203 1 1.29104 -5.65244 20.9205 -0.00428729 -0.00137059 0.0101605
254 1 6.1266 -4.2726 19.9114 -0.00413041 -0.0109169 0.00260884
226 1 4.05331 -5.5731 20.577 0.00374575 0.00607445 0.0101157
227 1 3.35241 -4.33099 20.5818 -0.0113953 0.00218896 0.00858132
244 1 5.52117 -3.0565 20.1447 -0.0240157 -0.00897856 0.00871004
214 1 1.97343 -4.36298 20.6385 -0.0256832 -0.00704014 0.010624
255 1 6.133 -1.83046 19.7871 -0.0107516 -0.0117738 0.00853299
228 1 4.11026 -3.1244 20.4193 0.000815392 -0.0028339 0.00557027
245 1 5.40106 -0.613587 19.9581 0.0207748 -0.00274565 0.0195769
229 1 3.36036 -1.94173 20.1728 0.00469402 0.00457631 -0.00416284
230 1 4.01871 -0.685018 20.0902 0.00608781 0.00205107 0.00961653
204 1 1.22161 -3.20942 20.6096 -0.027198 0.00695981 0.0147902
215 1 1.92535 -2.04872 20.3293 -0.00819176 -0.00477266 0.00383326
205 1 1.41667 -0.735635 20.0684 0.0075024 -0.00723276 -0.00169484
269 1 7.53958 -1.88827 19.9557 -0.00700383 -0.000248761 0.0230617
267 1 7.5566 -4.29575 19.7917 -0.00277669 -0.00791142 0.0290372
283 1 9.76521 -5.45985 19.7005 -0.0118122 0.00365798 -0.00946262
284 1 9.75038 -2.98471 19.9981 -0.00603919 0.000484223 0.00992582
285 1 9.74458 -0.611499 19.8684 -0.00514275 0.00148167 0.0136687
294 1 10.4436 -4.22166 19.9676 0.000132481 0.0085544 0.0172516
295 1 10.5189 -1.82038 19.919 -0.0103173 -0.000486035 0.00334004
306 1 12.6496 -5.55341 19.9999 0 0 0
307 1 11.9041 -4.32686 19.9999 0 0 0
308 1 12.647 -3.09734 19.9999 0 0 0
309 1 11.9037 -1.86828 19.9999 0 0 0
310 1 12.6457 -0.637745 19.9999 0 0 0
323 1 14.0539 -5.56516 19.9999 0 0 0
324 1 14.0472 -3.10129 19.9999 0 0 0
325 1 14.0438 -0.638188 19.9999 0 0 0
268 1 8.31339 -3.08716 19.9473 0.00591271 -0.0177672 0.0167773
270 1 8.32524 -0.625377 19.8823 -0.0117231 0.00103924 0.0114446
266 1 8.3471 -5.45469 19.4689 -0.00458323 -0.00990938 0.0165742
71 1 -13.6826 0.591886 19.9999 0 0 0
72 1 -13.0424 1.82079 19.9999 0 0 0
73 1 -13.6895 3.04359 19.9999 0 0 0
74 1 -13.0413 4.27397 19.9999 0 0 0
75 1 -13.7195 5.48914 19.9999 0 0 0
86 1 -11.5623 1.82169 19.9999 0 0 0
87 1 -11.5564 4.27485 19.9999 0 0 0
96 1 -10.7701 0.602433 19.9378 0.0163762 -0.00222598 -0.00802572
97 1 -10.8257 3.05851 19.9932 0.00799114 0.00761426 0.00565624
98 1 -10.8495 5.49035 19.8233 0.0067874 0.00494655 0.0134677
111 1 -9.26899 0.611624 19.9465 0.0168932 0.00389021 0.00198741
112 1 -8.53316 1.82513 19.6209 0.0141005 -0.00461919 0.00791928
113 1 -9.32678 3.06653 19.6496 0.0066876 0.00396325 0.01103
114 1 -8.58174 4.30188 19.5438 -0.000608821 0.0119385 0.0143594
115 1 -9.41495 5.40271 19.5319 -0.00236117 0.00816988 0.0021012
126 1 -7.09329 1.72593 19.5258 0.000107401 0.0187479 0.0254823
127 1 -7.16224 4.24228 19.1842 0.013819 0.000180163 0.0192651
138 1 -6.50415 5.47714 19.383 -0.00674099 0.000977957 0.0230627
136 1 -6.26 0.553003 19.4226 -0.00203875 2.79831e-05 0.0383554
178 1 -2.35064 5.52261 20.6377 -0.0107218 0.006646 0.0171127
195 1 -0.957657 5.6179 20.8639 -0.0035306 -0.00206048 0.0115597
155 1 -5.01569 5.60446 19.6265 -0.00965127 0.00914382 0.0298864
137 1 -6.33598 3.02087 19.3233 -0.00516265 -0.00055772 0.00374793
153 1 -4.94547 3.05218 19.483 -0.00674423 0.0155843 0.0143226
154 1 -4.24221 4.31621 19.6616 -0.00365137 0.0175809 0.0113996
167 1 -2.94305 4.26966 20.2525 0.0105736 -0.0137158 0.0033906
152 1 -4.1513 1.89722 19.4165 -0.00222596 -0.0044232 0.0193822
151 1 -4.8189 0.663707 19.1435 0.00210037 0.00183287 0.0427108
194 1 -0.258057 4.4223 20.717 -0.018531 -0.00589019 0.00207011
177 1 -2.26278 3.01933 20.2632 -0.00455017 -0.00949917 0.0208994
166 1 -2.77162 1.83563 19.7543 -0.00501782 -0.0108831 0.0152875
193 1 -0.811832 3.16621 20.3946 -0.0170028 -0.000983986 -0.00175787
176 1 -2.0406 0.607263 19.5571 -0.0203003 0.00227157 -0.00211483
191 1 -0.670845 0.629832 19.8043 0.00367877 -0.00475803 -0.00875569
192 1 -0.0974106 1.92327 20.2347 -0.00289662 -0.00239285 0.00304811
258 1 6.19054 5.53174 20.0241 -0.0161326 0.0111726 0.0177501
235 1 3.34892 5.50995 20.5931 0.0135467 -0.00382311 0.0153064
218 1 1.95666 5.64542 20.584 -0.010711 -0.00245249 0.0230805
257 1 6.27026 3.06839 20.1743 -0.0017391 0.0025397 0.00347922
247 1 5.52951 4.24286 20.1337 0.00900941 -0.00256185 0.00218196
234 1 4.10341 4.27231 20.524 -0.000797559 0.00811784 0.0143436
207 1 1.17166 4.41275 20.8388 -0.0186116 -0.0027552 0.0139847
246 1 5.44941 1.81162 20.2044 0.0028945 0.00553539 0.014736
233 1 3.32319 3.12633 20.5891 -0.014316 0.00255959 -0.00540986
232 1 4.0204 1.84561 20.439 -0.0048681 -0.000559035 0.00797614
256 1 6.15487 0.625019 19.9935 0.002068 0.00530658 0.0150801
217 1 1.93278 3.17276 20.5719 -0.00918169 -0.00722269 0.00894244
231 1 3.40364 0.62836 20.1825 0.00551159 0.0105162 0.00495678
206 1 1.31677 1.85183 20.3275 -0.00312384 -0.00774862 0.00435047
216 1 1.99129 0.640993 20.0882 0.00364664 0.00527947 -0.0092644
271 1 7.60454 0.545831 19.8881 0.00364447 0.0021119 0.0161119
273 1 7.68729 2.94393 20.0947 -0.0156225 0.00868497 0.0193961
275 1 7.59784 5.49233 19.8466 -0.0160107 0.00601154 0.0231071
286 1 9.78456 1.81582 20.0171 0.00236471 0.00328919 0.00232074
287 1 9.76327 4.18627 19.9368 -0.0162335 0.0099805 0.00283854
296 1 10.4814 0.611414 19.8861 -0.0103471 -0.0121839 0.00166661
297 1 10.5007 2.99315 20.037 -0.00960078 0.010305 0.00351679
298 1 10.5326 5.39508 19.9153 0.00322612 -0.0119395 0.00849301
311 1 11.9034 0.592385 19.9999 0 0 0
312 1 12.6457 1.82255 19.9999 0 0 0
313 1 11.9038 3.05326 19.9999 0 0 0
314 1 12.6466 4.28301 19.9999 0 0 0
315 1 11.9041 5.51379 19.9999 0 0 0
326 1 14.0439 1.82305 19.9999 0 0 0
327 1 14.0468 4.28589 19.9999 0 0 0
272 1 8.3799 1.68768 20.0562 -0.00792354 -0.00011037 0.0196179
274 1 8.33178 4.22914 19.9543 0.0150216 0.00613112 0.0244568
76 1 -13.0678 6.73987 19.9999 0 0 0
77 1 -13.743 7.99662 19.9999 0 0 0
78 1 -13.076 9.22053 19.9999 0 0 0
79 1 -13.6781 10.6114 19.9999 0 0 0
80 1 -13.0646 11.9529 19.9999 0 0 0
88 1 -11.5395 6.7281 19.9999 0 0 0
89 1 -11.5535 9.18478 19.9999 0 0 0
90 1 -11.7099 11.6077 19.9999 0 0 0
99 1 -10.8039 7.96518 19.9011 0.0067959 0.00722365 -0.000806547
100 1 -10.9027 10.4758 19.9999 0 0 0
116 1 -8.69883 6.67023 19.585 -0.000774795 0.0181044 -0.00283787
117 1 -9.32438 7.94796 19.8609 0.00501531 -0.00587437 -0.00522509
118 1 -8.62471 9.19746 19.9272 0.000555158 -0.0184571 -0.000626645
119 1 -9.37207 10.4804 19.9999 0 0 0
120 1 -8.62688 11.6228 19.9999 0 0 0
130 1 -7.38724 11.6024 19.9999 0 0 0
128 1 -7.24652 6.72414 19.5865 0.0108685 0.0145558 0.0107661
129 1 -7.24719 9.12364 19.9342 -0.00550531 0.0197294 0.00842875
139 1 -6.53623 7.91678 20.0158 -0.0141656 0.00246445 0.0062413
140 1 -6.60892 10.469 19.9999 0 0 0
157 1 -5.10476 7.90989 20.2708 0.000375304 0.00162255 0.0208123
158 1 -4.43056 9.11346 20.1384 0.00599366 -0.00852351 0.0177932
159 1 -5.14663 10.4689 19.9999 0 0 0
160 1 -4.36691 11.6023 19.9999 0 0 0
169 1 -3.00162 9.13206 20.1413 0.00302599 0.00997446 0.0119498
170 1 -3.12269 11.6018 19.9999 0 0 0
179 1 -2.23911 7.92849 20.264 -0.0157867 -0.000513273 0.0115725
180 1 -2.34103 10.4689 19.9999 0 0 0
197 1 -0.813421 7.97516 20.5737 -0.0132283 0.00274563 -0.00333478
198 1 -0.186711 9.21337 20.2755 -0.00769635 -0.00722286 -0.0052063
199 1 -0.876963 10.4688 19.9999 0 0 0
200 1 -0.0953724 11.6018 19.9999 0 0 0
156 1 -4.41313 6.67553 20.2318 -0.00171533 0.00715743 0.0261267
168 1 -2.97254 6.72307 20.4111 -0.00930562 0.000368688 0.019072
196 1 -0.126256 6.73204 20.7134 -0.00541487 -0.00834703 0.0100402
209 1 1.21975 9.27983 20.221 -0.0234474 0.00455851 0.0125915
210 1 1.14924 11.6018 19.9999 0 0 0
219 1 1.97078 8.08871 20.354 -0.00358828 -0.00335468 0.00497098
220 1 1.93091 10.4688 19.9999 0 0 0
237 1 3.33431 7.9543 20.4345 -0.000724841 0.00538258 0.0137426
238 1 4.0814 9.21986 20.1622 0.00253553 -0.00135549 0.012598
239 1 3.39506 10.4687 19.9999 0 0 0
240 1 4.17656 11.6018 19.9999 0 0 0
249 1 5.50075 9.1408 20.075 -0.00318791 0.00504345 0.0141511
250 1 5.4212 11.6017 19.9999 0 0 0
259 1 6.28614 8.00233 20.1223 -0.00223936 0.00224351 0.021483
260 1 6.20335 10.4685 19.9999 0 0 0
248 1 5.53443 6.72616 20.3905 -0.00740536 0.00584668 0.0121594
236 1 4.08758 6.76078 20.5867 -0.00883873 -0.0037458 0.0122882
208 1 1.29728 6.80315 20.5867 -0.00670666 0.00253974 0.0168607
277 1 7.73109 7.86965 19.8527 0.00581441 0.0124323 0.00805591
276 1 8.45244 6.64245 19.7254 -0.0173871 0.0106355 0.00501473
278 1 8.38551 9.1488 19.8509 -0.00539248 -0.0129856 -0.00550894
279 1 7.66711 10.4687 19.9999 0 0 0
280 1 8.44529 11.6024 19.9999 0 0 0
288 1 9.80921 6.62891 19.8579 -0.00655543 0.00157225 -0.008045
289 1 9.77163 9.16339 19.837 0.00434238 -0.00419495 0.00129784
290 1 9.6873 11.6101 19.9999 0 0 0
299 1 10.5266 7.92502 19.843 -0.0138737 0.00183905 -0.0101569
300 1 10.4752 10.4755 19.9999 0 0 0
316 1 12.6473 6.74288 19.9999 0 0 0
317 1 11.9051 7.97805 19.9999 0 0 0
318 1 12.6583 9.19198 19.9999 0 0 0
319 1 11.9246 10.4937 19.9999 0 0 0
320 1 12.7709 11.5297 19.9999 0 0 0
328 1 14.0456 6.75188 19.9999 0 0 0
329 1 14.0237 9.17042 19.9999 0 0 0
330 1 13.9415 11.792 19.9999 0 0 0
