ITEM: TIMESTEP
3600
ITEM: NUMBER OF ATOMS
330
ITEM: BOX BOUNDS pp pp pp
-1.4715758017245314e+01 1.5057610017245315e+01
-1.2710055654020760e+01 1.2664508654020761e+01
-5.0001035148846022e+01 1.0000103514884636e+02
ITEM: ATOMS id type x y z vx vy vz
8 1 -0.7284 -1.39282 9.16084 0.000398048 -0.00277655 0.0431081
20 1 -2.93832 -1.71874 11.9859 0.00763478 -0.000404734 0.0557549
27 1 -1.44016 -0.129146 9.12722 0.00213591 -0.00124721 0.0414767
28 1 -1.37865 -2.20002 10.1142 0.011623 -0.00500345 0.0451759
36 1 -1.11374 -3.33401 12.3431 0.0023231 0.000854494 0.0493778
42 1 -2.53632 -0.238723 10.043 0.00341236 0.00216902 0.0437443
44 1 -2.50562 -1.53209 10.6352 0.00447732 -0.00152217 0.047954
52 1 -0.707459 -3.11851 10.9702 -0.00274558 0.00722638 0.0423494
7 1 0.692713 -1.40694 9.14769 -0.00087086 0.00296707 0.0407229
16 1 2.94476 -1.71116 11.9705 -0.00759717 2.76941e-05 0.0520306
25 1 1.40059 -0.128237 9.14622 -0.008383 -0.00358412 0.0399705
26 1 1.38661 -2.221 10.1158 -0.00185705 -0.000109353 0.0424466
35 1 1.13478 -3.34052 12.3578 -0.0062064 -0.00047959 0.0546479
38 1 2.52413 -0.235319 10.039 -0.00181274 0.00160219 0.0463791
40 1 2.50849 -1.53292 10.6275 -0.00425077 0.00257662 0.0480819
50 1 0.717455 -3.13069 10.9803 -0.00392379 0.000440143 0.0509393
3 1 -3.49097 0.663557 12.2285 0.00893344 0.00388331 0.0536937
9 1 -0.00155034 3.59591 11.759 -0.000160931 -0.00359373 0.0485342
10 1 -0.0109154 2.95825 10.4586 0.000480699 -0.00147317 0.0524081
18 1 -2.98141 0.819302 10.9029 0.00563851 0.00100814 0.0508027
32 1 -1.13378 2.19072 10.0233 -0.000803111 0.000184461 0.0470982
51 1 -0.725379 1.12105 9.18362 -0.00279274 -0.000753526 0.043423
54 1 -2.27478 2.69578 12.118 0.00275281 -0.000375112 0.0507003
56 1 -2.26987 2.04867 10.8399 0.00524526 0.000306897 0.0436532
1 1 3.47356 0.673358 12.2448 -0.00810921 0.000548984 0.0550846
14 1 2.98867 0.832048 10.8889 -0.00708089 8.28897e-05 0.0452412
31 1 1.12833 2.2011 10.0065 -0.00069554 -0.00387349 0.0447517
49 1 0.713566 1.11973 9.16658 0.00498678 0.00157196 0.0454987
53 1 2.28312 2.6573 12.1157 -0.00626363 0.00308833 0.050012
55 1 2.27432 2.06183 10.8541 -0.00586493 -9.06393e-05 0.0458167
4 1 -3.49987 -0.656891 12.7777 0.0101074 0.00398677 0.0476102
11 1 -0.000377343 -3.06499 14.5684 0.00337367 0.00420918 0.0547412
12 1 -0.00786871 -3.595 13.2391 0.00384322 0.00188427 0.0498527
19 1 -2.96812 -0.851685 14.1041 0.012867 -0.00221413 0.0520353
34 1 -1.13429 -2.28948 15.0287 0.00239602 -0.0050258 0.0532281
48 1 -0.700964 -1.13082 15.7671 -0.00191864 0.00178531 0.0583878
58 1 -2.25298 -2.09862 14.1335 0.00216432 0.00125899 0.053429
60 1 -2.21635 -2.60424 12.8212 0.00348082 -0.000441466 0.0520391
2 1 3.4881 -0.654753 12.8037 -0.011237 0.000640902 0.0511899
15 1 2.93183 -0.854631 14.1231 -0.0148096 -0.00216329 0.0526541
33 1 1.15224 -2.29256 15.0374 -0.00357506 -0.00314708 0.0532922
46 1 0.685885 -1.1463 15.7818 0.00181864 -0.0024433 0.0575218
57 1 2.2374 -2.07385 14.1543 -0.0025558 0.000412942 0.0506533
59 1 2.23086 -2.60273 12.8419 -0.00363688 -0.00037413 0.0536445
6 1 -0.69076 1.37884 15.8066 -0.00243107 -0.00183379 0.0521894
17 1 -2.99388 1.79349 12.9852 0.00896004 -0.00393587 0.0501784
23 1 -1.34271 2.23025 14.8318 0.001719 0.00306351 0.0535015
24 1 -1.34013 0.114704 15.7444 0.00127072 -0.00360476 0.0562872
30 1 -1.13369 3.40129 12.6033 0.00348473 0.00257364 0.0469115
41 1 -2.48709 1.52014 14.3061 0.0024436 0.000992962 0.0489136
43 1 -2.49085 0.223627 14.8827 0.00575042 -0.00353211 0.05563
47 1 -0.699272 3.11238 13.9072 0.00388096 0.00293167 0.0565869
5 1 0.696396 1.4277 15.8244 0.00296317 0.000694328 0.0554116
13 1 2.97476 1.78827 12.9938 -0.00584515 -0.00177351 0.0510727
21 1 1.39428 2.25469 14.8665 -0.00656263 0.00443671 0.0513717
22 1 1.35831 0.123317 15.7356 0.00183114 -0.00363132 0.0571138
29 1 1.14966 3.40194 12.5804 -0.00343998 -0.000531732 0.0515373
37 1 2.50503 1.53206 14.3236 -0.00336535 0.000208907 0.0547277
39 1 2.47537 0.226762 14.8703 -0.00532303 -0.00247299 0.0537881
45 1 0.715874 3.11983 13.9447 0.00165546 0.00478875 0.0497726
61 1 -13.6674 -11.9461 19.9999 0 0 0
62 1 -13.1228 -10.6724 19.9999 0 0 0
63 1 -13.7825 -9.34696 19.9999 0 0 0
64 1 -13.0772 -8.00396 19.9999 0 0 0
65 1 -13.7542 -6.79742 19.9999 0 0 0
81 1 -11.507 -10.5408 19.9999 0 0 0
82 1 -11.5331 -8.01671 19.9999 0 0 0
91 1 -10.7591 -11.6424 19.9999 0 0 0
92 1 -10.8169 -9.21231 20.0005 0.00516936 0.00149511 2.3101e-05
93 1 -10.8438 -6.80686 20.0042 0.0141738 0.000822031 0.000171744
101 1 -9.52473 -11.6468 19.9999 0 0 0
102 1 -8.74136 -10.5124 19.9999 0 0 0
103 1 -9.40852 -9.23819 20.0037 0.00257147 0.00805975 0.000107254
104 1 -8.64939 -8.0676 20.0128 0.0102746 0.0016978 0.000241497
105 1 -9.40821 -6.86448 20.0151 0.0196898 0.000587761 0.000326964
121 1 -7.27873 -10.5146 19.9999 0 0 0
122 1 -7.20737 -8.10553 20.0151 0.011225 0.00371982 0.000278987
131 1 -6.50232 -11.6488 19.9999 0 0 0
132 1 -6.46785 -9.31873 20.009 0.00787621 0.00232061 9.15871e-05
133 1 -6.67017 -6.79241 20.0086 0.0136387 -0.000549654 0.000103028
141 1 -5.25854 -11.6473 19.9999 0 0 0
142 1 -4.47674 -10.5145 19.9999 0 0 0
143 1 -5.05976 -9.19454 20.0062 0.00767231 -0.00246829 5.78409e-05
144 1 -4.41388 -7.96302 19.9977 0.00901566 0.00283777 -3.68906e-05
145 1 -5.25401 -6.8066 19.9913 0.0132849 0.00152362 -0.000165755
161 1 -3.01281 -10.5144 19.9999 0 0 0
162 1 -3.02863 -7.9318 19.9855 0.00683831 0.00500884 -0.000384052
171 1 -2.23133 -11.6474 19.9999 0 0 0
172 1 -2.39101 -9.1874 19.9979 0.000310668 0.00146734 -0.000183403
173 1 -2.43471 -6.64266 19.9426 0.00704311 0.00214733 -0.000714374
181 1 -0.986751 -11.6474 19.9999 0 0 0
182 1 -0.205108 -10.5143 19.9999 0 0 0
183 1 -1.00578 -9.29274 19.9944 -0.00577449 0.000691751 -0.000138119
184 1 -0.456226 -7.9806 19.9701 0.00357555 0.00425154 -0.000733418
185 1 -1.09135 -6.70671 19.9326 0.00380947 0.00964201 -0.00146155
201 1 1.25901 -10.5143 19.9999 0 0 0
202 1 0.941664 -8.0402 19.9711 0.00030682 0.00469998 -0.000800991
211 1 2.0406 -11.6474 19.9999 0 0 0
212 1 1.75318 -9.21177 19.9889 -0.00274036 0.00302211 -0.000329359
213 1 1.60107 -6.78928 19.9405 0.00219691 -0.00393378 -0.00106848
221 1 3.28523 -11.6473 19.9999 0 0 0
222 1 4.06705 -10.5143 19.9999 0 0 0
223 1 3.19073 -9.30326 19.9926 -0.000724652 0.00370821 -0.000271008
224 1 3.839 -8.07403 19.9855 0.00437109 0.00781917 -0.000606219
225 1 3.02689 -6.87911 19.9571 -0.000821931 0.00362131 -0.0010474
241 1 5.53108 -10.5143 19.9999 0 0 0
242 1 5.30385 -8.09362 19.997 0.00259314 0.00096251 -0.000379959
251 1 6.31174 -11.6474 19.9999 0 0 0
252 1 6.23699 -9.18002 20.0048 0.00105867 0.00199718 -0.000140971
253 1 5.99972 -6.847 19.995 -0.00126426 -0.00228052 -0.000362517
261 1 7.55524 -11.6498 19.9999 0 0 0
262 1 8.33779 -10.5154 19.9999 0 0 0
263 1 7.66778 -9.16732 20.0069 -0.0049561 -0.00669418 -6.43969e-05
264 1 8.3343 -7.91229 20.0103 -9.77735e-05 -0.0115232 -6.91307e-05
265 1 7.46156 -6.75299 20.0062 0.00462293 -0.0119397 -0.000216965
281 1 9.79556 -10.5245 19.9999 0 0 0
282 1 9.77872 -7.94809 20.0082 0.00167981 0.00193176 7.60023e-05
291 1 10.5816 -11.6418 19.9999 0 0 0
292 1 10.4846 -9.21977 20.0033 -0.00470135 -0.00108677 8.1411e-05
293 1 10.4151 -6.67511 20.0072 0.00656323 0.00166025 -1.39956e-05
301 1 11.8019 -11.7522 19.9999 0 0 0
302 1 12.7161 -10.5156 19.9999 0 0 0
303 1 11.8934 -9.22642 19.9999 0 0 0
304 1 12.655 -8.00627 19.9999 0 0 0
305 1 11.8992 -6.77596 19.9999 0 0 0
321 1 14.087 -10.4984 19.9999 0 0 0
322 1 14.0714 -8.01298 19.9999 0 0 0
66 1 -13.0658 -5.54976 19.9999 0 0 0
67 1 -13.7179 -4.30197 19.9999 0 0 0
68 1 -13.0406 -3.0891 19.9999 0 0 0
69 1 -13.6883 -1.86008 19.9999 0 0 0
70 1 -13.0424 -0.636745 19.9999 0 0 0
83 1 -11.5387 -5.54743 19.9999 0 0 0
84 1 -11.5566 -3.09089 19.9999 0 0 0
85 1 -11.5625 -0.637245 19.9999 0 0 0
94 1 -10.8903 -4.30856 20.0083 0.0253943 -0.003195 0.000406725
95 1 -10.8261 -1.87309 20.0083 0.00405902 0.00189335 7.85776e-05
106 1 -8.83609 -5.5835 20.017 0.0221741 -0.00201048 0.000451051
107 1 -9.47952 -4.35415 20.0148 0.0112726 -0.00147755 0.000409913
108 1 -8.81406 -3.135 20.0064 0.012215 0.00463611 0.000238141
109 1 -9.47255 -1.87348 20.0063 0.000772027 -0.000958495 0.000357424
110 1 -8.7963 -0.671535 19.9938 0.00379197 0.000797459 0.000317917
123 1 -7.45624 -5.59975 20.0078 0.0126233 -0.000156507 0.000187968
124 1 -7.43225 -3.1242 19.9759 0.00768573 0.00220537 -0.000293615
125 1 -7.4439 -0.656446 19.9533 0.00646759 0.000782623 -0.000505133
134 1 -6.80868 -4.40958 19.9772 0.0114252 0.0047882 -0.000480666
135 1 -6.79203 -1.87787 19.9353 0.00500026 0.000386951 -0.000592264
146 1 -4.61704 -5.5523 19.9447 -0.000247057 0.00529677 -0.000740362
147 1 -5.40987 -4.36163 19.9291 0.0177462 0.00924579 -0.00149044
148 1 -4.78586 -3.11519 19.8603 0.00942974 0.00259743 -0.00216041
149 1 -5.43334 -1.87189 19.8632 0.0108496 0.0039623 -0.00211362
150 1 -4.76615 -0.634812 19.8135 -0.000905375 0.00368649 -0.00188176
163 1 -3.18875 -5.45033 19.9053 0.00127737 -0.000322143 -0.000790844
164 1 -3.41666 -3.05793 19.8013 0.0139408 0.00829538 -0.00296865
165 1 -3.42242 -0.619429 19.7416 0.00401989 0.00902334 -0.00307671
174 1 -2.55732 -4.20087 19.8287 0.0107322 0.00320493 -0.00194796
175 1 -2.73418 -1.85468 19.7379 0.0160219 0.00691601 -0.00338047
186 1 -0.474802 -5.43982 19.8763 0.0118886 0.00274478 -0.00138399
187 1 -1.15451 -4.19093 19.8106 0.00574801 -0.000322656 -0.00154877
188 1 -0.50484 -2.96268 19.7517 0.0118457 0.00311207 -0.00183898
189 1 -1.3058 -1.81905 19.7088 0.0087624 0.0071388 -0.00265825
190 1 -0.546311 -0.619802 19.6869 0.0157687 -0.00105185 -0.00237525
203 1 0.945989 -5.5116 19.8888 0.00461974 -0.00546307 -0.00104276
204 1 0.931066 -3.01478 19.7772 -0.00143137 -0.00302684 -0.00171807
205 1 0.921211 -0.66252 19.7162 0.010859 -0.00357098 -0.00193679
214 1 1.6371 -4.26126 19.8451 -0.00890327 9.87618e-05 -0.00176783
215 1 1.69223 -1.85357 19.7586 -0.000916994 -0.00583935 -0.0020252
226 1 3.76892 -5.64176 19.9382 0.00437715 0.000852433 -0.000953101
227 1 3.07482 -4.37848 19.8842 0.0019746 -0.0016968 -0.00139067
228 1 3.83372 -3.16661 19.8673 0.00436134 -0.00206483 -0.0012867
229 1 3.14395 -1.91333 19.8117 0.00982694 -0.00155842 -0.00141296
230 1 3.8657 -0.665375 19.8207 0.00261747 -0.00129172 -0.001657
243 1 5.19497 -5.65553 19.9647 -0.00140154 0.000252823 -0.00088517
244 1 5.25746 -3.11045 19.9111 0.00118378 -0.000620161 -0.0010917
245 1 5.29871 -0.649233 19.8803 -0.000570948 0.00508374 -0.0017909
254 1 5.91726 -4.38291 19.9535 0.00207998 -0.00442713 -0.000573008
255 1 6.0527 -1.87934 19.9184 -0.00149425 -0.00362637 -0.00143021
269 1 7.50302 -1.82645 19.96 -0.00232518 0.00232047 -0.00113526
267 1 7.3677 -4.28119 19.9813 0.00279855 -0.00678346 -0.000515114
266 1 8.11685 -5.47287 20.003 -0.00565791 -0.0080072 -0.000366653
268 1 8.19153 -3.0666 19.9831 -0.00788363 -0.00224547 -0.0008114
270 1 8.32024 -0.65007 19.9728 -0.00769364 0.00752993 -0.00108324
283 1 9.60174 -5.47226 20.0079 -0.00223446 -0.00590939 -0.000172333
284 1 9.66443 -3.0605 19.9987 -0.00442774 0.0101113 -0.000443785
285 1 9.76154 -0.616845 19.9926 0.000501081 -0.00238359 -0.000493082
294 1 10.3975 -4.27553 20.0044 -0.00445167 0.00784471 -0.000160253
295 1 10.4742 -1.87849 19.9986 0.00137895 -0.00163326 -0.000238778
306 1 12.6496 -5.55341 19.9999 0 0 0
307 1 11.9041 -4.32686 19.9999 0 0 0
308 1 12.647 -3.09734 19.9999 0 0 0
309 1 11.9037 -1.86828 19.9999 0 0 0
310 1 12.6457 -0.637745 19.9999 0 0 0
323 1 14.0539 -5.56516 19.9999 0 0 0
324 1 14.0472 -3.10129 19.9999 0 0 0
325 1 14.0438 -0.638188 19.9999 0 0 0
71 1 -13.6826 0.591886 19.9999 0 0 0
72 1 -13.0424 1.82079 19.9999 0 0 0
73 1 -13.6895 3.04359 19.9999 0 0 0
74 1 -13.0413 4.27397 19.9999 0 0 0
75 1 -13.7195 5.48914 19.9999 0 0 0
86 1 -11.5623 1.82169 19.9999 0 0 0
87 1 -11.5564 4.27485 19.9999 0 0 0
96 1 -10.8367 0.612946 20.0065 -0.00182316 0.00439706 -3.9589e-05
97 1 -10.8294 3.0039 20.0069 -0.00233822 -0.00194743 6.1001e-05
98 1 -10.8203 5.56453 20.0059 0.00331284 -0.00417932 0.000144537
111 1 -9.4654 0.554706 20.0024 -0.0010465 0.00524894 0.000320526
112 1 -8.77067 1.77894 19.9959 0.00760583 -0.00504263 0.00012969
113 1 -9.44861 3.0155 20.0073 0.00178463 -0.00620702 0.000269697
114 1 -8.86518 4.29458 20.0087 0.0111807 -0.00486363 0.000272715
115 1 -9.41147 5.59263 20.0139 0.0181689 -0.000925688 0.000361645
126 1 -7.38493 1.83288 19.9572 0.000354539 0.000764016 -0.000190191
127 1 -7.49687 4.33222 19.9905 0.00769408 -0.00393348 -0.000194851
136 1 -6.79544 0.57862 19.9243 0.00259987 0.000794426 -0.000638
137 1 -6.81662 3.12008 19.953 0.0100942 -0.00672023 -0.000895639
138 1 -6.74626 5.5596 19.9921 0.00726702 -0.000596847 -0.000100905
151 1 -5.45096 0.568268 19.8519 0.00420902 -4.45836e-05 -0.00181113
152 1 -4.81043 1.81737 19.8351 0.0012684 0.0035542 -0.00179815
153 1 -5.44178 3.07761 19.8968 0.0094452 -0.00192109 -0.00163743
154 1 -4.76092 4.29096 19.9059 0.00910526 -0.000387704 -0.00149785
155 1 -5.32996 5.52843 19.9618 0.00870858 -0.00583214 -0.000599484
166 1 -3.42265 1.76655 19.7669 0.0102444 -0.0031601 -0.00304589
167 1 -3.34306 4.22123 19.8567 0.0128102 -0.00420758 -0.00197605
176 1 -2.65089 0.571844 19.7151 0.0193419 -0.0013238 -0.00329086
177 1 -2.66397 2.98019 19.7809 0.00386769 -0.00507028 -0.00247484
178 1 -2.5019 5.40113 19.8903 -0.00348439 -0.00438134 -0.00111835
191 1 -1.26692 0.571725 19.6869 0.00997475 -0.00130237 -0.00290712
192 1 -0.53017 1.74641 19.7102 0.0162612 -0.00403374 -0.00247179
193 1 -1.2817 2.94059 19.7553 0.000112051 -0.00161706 -0.00220008
194 1 -0.473887 4.07519 19.8073 0.00906449 0.00280613 -0.00147003
195 1 -1.10955 5.34126 19.8715 -0.0030865 -0.000128953 -0.0012833
206 1 0.935732 1.77468 19.7356 0.00864365 0.00125086 -0.00174485
207 1 0.979721 4.16539 19.8277 0.00117136 0.00208518 -0.00147549
216 1 1.66003 0.553012 19.737 0.0117372 0.0076582 -0.00181028
217 1 1.71903 2.98086 19.7966 0.00451453 -0.00160468 -0.00190967
218 1 1.60765 5.48645 19.8936 0.000123269 -0.00406093 -0.00157447
231 1 3.13665 0.569688 19.7904 0.0196709 0.00149707 -0.00114815
232 1 3.82529 1.83478 19.8364 0.0046943 0.00471279 -0.00132798
233 1 3.16507 3.11536 19.8457 0.00352003 -0.00287009 -0.00165572
234 1 3.79658 4.40702 19.9013 -0.00508655 0.000371295 -0.00150026
235 1 3.02862 5.607 19.9214 -0.00035106 -0.000487667 -0.00138841
246 1 5.25606 1.7883 19.8903 0.006851 -2.82094e-05 -0.00106729
247 1 5.20205 4.32193 19.9346 0.00454878 -0.00409053 -0.000887847
256 1 6.08927 0.554752 19.9118 0.000972136 0.00751655 -0.00143865
257 1 5.96378 3.04969 19.9317 0.00136311 0.00248193 -0.000898139
258 1 5.89453 5.59185 19.9732 0.00240398 0.000586912 -0.000538344
271 1 7.56134 0.569611 19.9572 -0.00679195 0.00411527 -0.0013241
273 1 7.43785 2.98376 19.9678 0.000590739 0.000203052 -0.000835851
272 1 8.29311 1.79059 19.9762 0.000684081 0.00131657 -0.000843346
274 1 8.13649 4.21829 19.9904 -0.00134178 -0.00282081 -0.000625717
275 1 7.39508 5.45739 19.994 0.00270714 0.00581279 -0.000361318
286 1 9.76637 1.85994 19.9937 0.00776133 -0.00217319 -0.000525708
287 1 9.6325 4.24638 20.0017 0.00661394 -0.00214754 -0.000393505
296 1 10.4784 0.607622 19.9962 -0.00154324 -0.00823018 -0.000350913
297 1 10.4713 3.08413 19.9997 -0.00250425 0.00120533 -0.000340028
298 1 10.4076 5.46183 20.0055 -0.00106858 0.0086291 -0.0001121
311 1 11.9034 0.592385 19.9999 0 0 0
312 1 12.6457 1.82255 19.9999 0 0 0
313 1 11.9038 3.05326 19.9999 0 0 0
314 1 12.6466 4.28301 19.9999 0 0 0
315 1 11.9041 5.51379 19.9999 0 0 0
326 1 14.0439 1.82305 19.9999 0 0 0
327 1 14.0468 4.28589 19.9999 0 0 0
76 1 -13.0678 6.73987 19.9999 0 0 0
77 1 -13.743 7.99662 19.9999 0 0 0
78 1 -13.076 9.22053 19.9999 0 0 0
79 1 -13.6781 10.6114 19.9999 0 0 0
80 1 -13.0646 11.9529 19.9999 0 0 0
88 1 -11.5395 6.7281 19.9999 0 0 0
89 1 -11.5535 9.18478 19.9999 0 0 0
90 1 -11.7099 11.6077 19.9999 0 0 0
99 1 -10.8402 7.99114 20.0026 -0.00540484 0.00658832 3.74469e-05
100 1 -10.9027 10.4758 19.9999 0 0 0
116 1 -8.67429 6.82486 20.015 0.00969312 -0.00257218 0.000276134
117 1 -9.38426 8.0298 20.0099 0.00909058 -0.000873203 0.000181154
118 1 -8.61857 9.20574 20.0064 -0.00111193 0.00294456 7.95027e-05
119 1 -9.37207 10.4804 19.9999 0 0 0
120 1 -8.62688 11.6228 19.9999 0 0 0
130 1 -7.38724 11.6024 19.9999 0 0 0
128 1 -7.29987 6.82478 20.0113 0.00424642 -0.00100721 0.000302303
129 1 -7.21024 9.17173 20.0079 0.00135513 -0.00213166 0.000159056
139 1 -6.5258 7.98069 20.01 0.0163621 0.00321133 8.30278e-05
140 1 -6.60892 10.469 19.9999 0 0 0
156 1 -4.51612 6.69392 19.9746 0.000182875 -0.00368142 -0.000345614
157 1 -5.10211 7.94697 20.0014 0.0146778 0.00135196 -8.76411e-05
158 1 -4.42216 9.18816 20.0031 0.0117439 -0.000544984 -8.4507e-05
159 1 -5.14663 10.4689 19.9999 0 0 0
160 1 -4.36691 11.6023 19.9999 0 0 0
168 1 -3.1229 6.66561 19.9506 0.000380577 -0.00546793 -0.00088124
169 1 -3.03917 9.19254 19.9985 0.00979182 -0.00493172 -0.000162503
170 1 -3.12269 11.6018 19.9999 0 0 0
179 1 -2.38685 7.92295 19.9766 0.00417151 -0.00407354 -0.000617172
180 1 -2.34103 10.4689 19.9999 0 0 0
196 1 -0.458882 6.62649 19.9272 0.00306071 0.000866088 -0.00112697
197 1 -0.977909 7.96136 19.9702 0.00294662 -0.00198185 -0.000773218
198 1 -0.233404 9.18176 19.9899 -0.0041102 0.00460573 -0.000261488
199 1 -0.876963 10.4688 19.9999 0 0 0
200 1 -0.0953724 11.6018 19.9999 0 0 0
208 1 0.930313 6.73348 19.9335 -0.00246623 0.000645816 -0.00108762
209 1 1.13124 9.25101 19.9892 -0.00129205 0.0084041 -0.000281571
210 1 1.14924 11.6018 19.9999 0 0 0
219 1 1.67385 7.97898 19.9688 -0.00367443 0.00331065 -0.000689949
220 1 1.93091 10.4688 19.9999 0 0 0
236 1 3.76639 6.81319 19.964 0.00353371 -0.00067283 -0.000830506
237 1 3.08025 8.0268 19.9782 -0.000297595 -0.00568441 -0.000675918
238 1 3.9095 9.18197 19.9957 0.00287859 -0.00390156 -0.000209766
239 1 3.39506 10.4687 19.9999 0 0 0
240 1 4.17656 11.6018 19.9999 0 0 0
248 1 5.20037 6.84849 19.9828 0.00352098 -0.00337329 -0.000719468
249 1 5.34221 9.2197 20.0001 0.00628072 -0.00367888 -0.000133292
250 1 5.4212 11.6017 19.9999 0 0 0
259 1 6.05404 8.02152 20.0021 -0.00251767 -0.000123604 -0.000362504
260 1 6.20335 10.4685 19.9999 0 0 0
276 1 8.16302 6.68598 20.0084 -0.00212881 0.0114319 -0.000162911
277 1 7.53046 7.96734 20.0083 -0.00373561 0.00733149 -0.000155293
278 1 8.36504 9.14529 20.0064 0.000119484 0.00144269 1.34127e-05
279 1 7.66711 10.4687 19.9999 0 0 0
280 1 8.44529 11.6024 19.9999 0 0 0
288 1 9.64832 6.66565 20.009 0.000799425 0.00301349 -4.97471e-05
289 1 9.78001 9.13292 20.0049 -5.73908e-05 0.00669206 6.09827e-05
290 1 9.6873 11.6101 19.9999 0 0 0
299 1 10.4883 7.90101 20.0056 0.00390621 0.00700438 4.29554e-05
300 1 10.4752 10.4755 19.9999 0 0 0
316 1 12.6473 6.74288 19.9999 0 0 0
317 1 11.9051 7.97805 19.9999 0 0 0
318 1 12.6583 9.19198 19.9999 0 0 0
319 1 11.9246 10.4937 19.9999 0 0 0
320 1 12.7709 11.5297 19.9999 0 0 0
328 1 14.0456 6.75188 19.9999 0 0 0
329 1 14.0237 9.17042 19.9999 0 0 0
330 1 13.9415 11.792 19.9999 0 0 0
