ITEM: TIMESTEP
12200
ITEM: NUMBER OF ATOMS
330
ITEM: BOX BOUNDS pp pp pp
-1.4715758017245314e+01 1.5057610017245315e+01
-1.2710055654020760e+01 1.2664508654020761e+01
-5.0001035148846022e+01 1.0000103514884636e+02
ITEM: ATOMS id type x y z vx vy vz
61 1 -13.6674 -11.9461 19.9999 0 0 0
62 1 -13.1228 -10.6724 19.9999 0 0 0
63 1 -13.7825 -9.34696 19.9999 0 0 0
64 1 -13.0772 -8.00396 19.9999 0 0 0
65 1 -13.7542 -6.79742 19.9999 0 0 0
81 1 -11.507 -10.5408 19.9999 0 0 0
82 1 -11.5331 -8.01671 19.9999 0 0 0
91 1 -10.7591 -11.6424 19.9999 0 0 0
92 1 -10.8099 -9.24003 19.9932 -0.00315307 -0.00357671 -0.000882842
93 1 -10.7922 -6.79788 19.9 -0.00547267 0.00621373 -0.0022323
101 1 -9.52473 -11.6468 19.9999 0 0 0
102 1 -8.74136 -10.5124 19.9999 0 0 0
103 1 -9.38426 -9.25074 19.9183 0.0028523 -0.00273511 -0.00415637
104 1 -8.59729 -8.04918 19.6813 0.00596869 -0.00182933 -0.00826277
105 1 -9.31578 -6.82937 19.6936 0.00921138 0.000403095 -0.00492953
121 1 -7.27873 -10.5146 19.9999 0 0 0
122 1 -7.15891 -7.98041 19.628 0.0165197 -0.00231637 -0.00150139
131 1 -6.50232 -11.6488 19.9999 0 0 0
132 1 -6.48473 -9.22619 19.7092 0.0066599 0.000453468 0.000319201
133 1 -6.42876 -6.7601 20.0237 0.0169841 0.0039735 0.0262459
141 1 -5.25854 -11.6473 19.9999 0 0 0
142 1 -4.47674 -10.5145 19.9999 0 0 0
143 1 -5.05416 -9.15388 19.8796 0.00449004 -0.00989713 0.00763994
144 1 -4.33134 -7.97574 20.3148 0.00814435 -0.00602085 0.0307478
145 1 -5.09621 -6.76326 20.6438 0.0114777 -0.00214452 0.033225
161 1 -3.01281 -10.5144 19.9999 0 0 0
162 1 -2.91634 -7.98031 20.6529 0.00655758 -0.00799364 0.0297454
171 1 -2.23133 -11.6474 19.9999 0 0 0
172 1 -2.26456 -9.22782 20.3224 0.00891785 -0.0109829 0.0240256
173 1 -2.39905 -6.83176 21.4844 -0.00203002 -0.00385602 0.0243854
181 1 -0.986751 -11.6474 19.9999 0 0 0
182 1 -0.205108 -10.5143 19.9999 0 0 0
183 1 -0.868924 -9.23802 20.4205 -0.000284653 0.00180337 0.0270331
184 1 -0.198381 -8.04 21.024 -0.000833284 -0.00932858 0.0269931
185 1 -0.945025 -6.83744 21.5996 0.00441079 0.000600505 0.0189237
201 1 1.25901 -10.5143 19.9999 0 0 0
202 1 1.24864 -8.02344 20.9295 -0.00521143 -0.0114749 0.0379027
211 1 2.0406 -11.6474 19.9999 0 0 0
212 1 1.90802 -9.20046 20.3114 0.00205784 -0.00593761 0.0252925
213 1 1.93133 -6.79644 21.4766 -0.00463618 -0.00377852 0.0299188
221 1 3.28523 -11.6473 19.9999 0 0 0
222 1 4.06705 -10.5143 19.9999 0 0 0
223 1 3.3156 -9.15308 20.1704 -0.0118351 -0.0056713 0.0286416
224 1 3.92174 -7.84735 20.223 -0.000583576 -0.00589206 0.0296064
225 1 3.2729 -6.69216 21.0264 -0.00449115 -0.00936707 0.0257791
241 1 5.53108 -10.5143 19.9999 0 0 0
242 1 5.27581 -7.82995 19.789 -0.0039731 -0.0100961 0.016999
251 1 6.31174 -11.6474 19.9999 0 0 0
252 1 6.08114 -9.12165 19.7225 0.00406682 -0.0036758 0.000639763
253 1 5.98294 -6.59134 19.978 -0.0103597 0.00389604 0.0282825
261 1 7.55524 -11.6498 19.9999 0 0 0
265 1 7.43139 -6.66149 19.6441 -0.0146079 0.000748813 0.00297322
263 1 7.51914 -9.18441 19.7951 0.00598001 0.0061989 -0.00932911
262 1 8.33779 -10.5154 19.9999 0 0 0
264 1 8.23138 -7.91165 19.7536 0.00138974 0.00936031 -0.00783667
281 1 9.79556 -10.5245 19.9999 0 0 0
282 1 9.69041 -7.97054 19.9164 -0.00371234 -0.00167483 -0.00640247
291 1 10.5816 -11.6418 19.9999 0 0 0
292 1 10.4868 -9.21549 20.0045 0.00717444 -0.00218666 -0.00176358
293 1 10.4706 -6.70339 19.8809 -0.00820004 0.00692361 -0.00523098
301 1 11.8019 -11.7522 19.9999 0 0 0
302 1 12.7161 -10.5156 19.9999 0 0 0
303 1 11.8934 -9.22642 19.9999 0 0 0
304 1 12.655 -8.00627 19.9999 0 0 0
305 1 11.8992 -6.77596 19.9999 0 0 0
321 1 14.087 -10.4984 19.9999 0 0 0
322 1 14.0714 -8.01298 19.9999 0 0 0
66 1 -13.0658 -5.54976 19.9999 0 0 0
67 1 -13.7179 -4.30197 19.9999 0 0 0
68 1 -13.0406 -3.0891 19.9999 0 0 0
69 1 -13.6883 -1.86008 19.9999 0 0 0
70 1 -13.0424 -0.636745 19.9999 0 0 0
83 1 -11.5387 -5.54743 19.9999 0 0 0
84 1 -11.5566 -3.09089 19.9999 0 0 0
85 1 -11.5625 -0.637245 19.9999 0 0 0
94 1 -10.8152 -4.29744 19.9002 -0.00206894 -0.00406192 0.00220648
95 1 -10.824 -1.85553 20.0085 -0.00747938 -0.000199042 0.0125456
106 1 -8.57314 -5.59577 19.7721 0.00892376 0.00297354 0.0110319
107 1 -9.32364 -4.33994 19.8961 0.0153939 0.007516 0.0118521
108 1 -8.6296 -3.14084 20.3804 -0.00381405 0.00706008 0.0243617
109 1 -9.35371 -1.87175 20.3394 0.000943426 0.00735525 0.0281062
110 1 -8.72361 -0.631675 20.8351 0.00529978 -0.00626693 0.0214569
125 1 -7.40068 -0.692072 21.5766 0.0054053 -0.00239571 0.0192289
124 1 -7.35804 -3.21071 21.117 -0.00258954 -0.0128477 0.0299581
27 1 -1.22964 -0.0424794 16.1979 0.000112614 -0.00233978 -0.00736061
8 1 -0.611228 -1.31882 16.0688 -0.0037243 0.00771513 -0.0100986
28 1 -1.38296 -2.30292 16.7779 -0.00468171 0.00777455 0.00656148
42 1 -2.53858 -0.270278 16.8696 0.0100088 0.000318297 0.0140203
44 1 -2.59491 -1.66088 17.1768 0.00887302 0.00888874 0.00839841
52 1 -0.727111 -3.32519 17.5872 0.00130667 0.00606134 0.0131929
20 1 -3.03074 -1.87553 18.4877 -0.00842648 0.0032765 0.0117701
36 1 -1.22137 -3.56345 18.9222 0.00192339 -0.000195585 0.00599148
4 1 -3.55027 -0.77592 19.3928 -0.00220395 0.00617138 -0.00173167
12 1 -0.0458942 -3.88704 19.7399 0.00437953 -0.00289051 0.00796808
60 1 -2.45507 -2.9143 19.3623 -0.0126438 -0.0119007 0.00569714
123 1 -7.16269 -5.56533 20.2313 0.00345101 -0.0121618 0.028103
19 1 -3.48226 -1.1749 20.771 0.00643053 -0.0051338 0.00609254
58 1 -2.76629 -2.4981 20.7013 -0.00236586 0.0130445 0.01235
11 1 -0.215519 -3.39768 21.1129 -0.00985429 -0.00846596 0.00141989
34 1 -1.45245 -2.65942 21.3667 -0.0067581 -0.0230684 0.0162879
48 1 -1.0326 -1.30007 21.3276 -0.00314721 -0.00477783 0.0349173
134 1 -6.58453 -4.44366 21.0251 -0.00868635 -0.0104266 0.0225582
135 1 -6.79351 -1.99623 21.7058 0.00805108 -0.00633164 0.0176817
146 1 -4.54806 -5.69387 21.4769 0.0115407 -0.0102699 0.0246152
147 1 -5.30121 -4.40348 21.6337 -0.00717027 0.00220985 0.0121926
163 1 -3.18711 -5.68062 22.0176 -0.000246798 0.00482332 0.0267488
24 1 -1.72332 -0.0753848 21.3441 -0.0102072 -0.0123183 0.0422602
25 1 1.34766 -0.0203387 16.2767 -0.00868953 0.00489624 -0.0144553
7 1 0.780741 -1.31625 16.0734 -0.00768512 0.000958688 -0.00982448
26 1 1.45816 -2.34934 16.7997 0.00353838 0.00506367 0.00670497
38 1 2.67174 -0.239505 16.7459 -0.0169611 -0.0103638 0.00230803
40 1 2.67316 -1.68709 17.114 -0.00266354 0.0050224 0.00445679
50 1 0.733035 -3.42807 17.4843 -0.00529637 0.0139221 0.0110422
16 1 3.06308 -1.92719 18.4498 0.0128704 0.000804375 0.0127071
35 1 1.11957 -3.5856 18.857 -0.00148587 0.00883409 0.0132393
2 1 3.48955 -0.781057 19.2514 -0.00370095 0.000477907 0.000654324
59 1 2.35096 -2.87597 19.2094 -7.27902e-05 3.65055e-06 0.00499093
15 1 3.0574 -1.14079 20.6144 -0.00406149 0.0015846 0.0119165
57 1 2.29977 -2.38526 20.54 -0.00753364 -0.00926079 0.0111104
33 1 0.921969 -2.52112 21.1102 -0.00214134 -0.00417824 0.00796968
46 1 0.256313 -1.27462 20.9583 0.00257011 -0.0113903 0.0292913
226 1 3.94284 -5.43304 21.3537 -0.00507024 -0.0100883 0.0281444
227 1 3.22977 -4.29773 22.0364 0.00626222 0.000682264 0.023857
243 1 5.33394 -5.49381 20.7958 -0.00577824 -0.00600861 0.0336854
244 1 5.37408 -3.08403 21.5336 -0.00105384 -0.00260414 0.0308822
254 1 6.03164 -4.24646 20.9032 -0.00456191 -0.0093148 0.0404518
255 1 6.01265 -1.81414 21.5024 0.00116473 -0.0107217 0.0222938
267 1 7.39445 -4.25558 20.1485 0.00609735 0.000969164 0.0275607
269 1 7.3795 -1.83212 20.7221 0.00472785 -0.00448285 0.0320901
22 1 0.935616 -0.136032 20.8956 0.00173599 0.00517058 0.0236183
266 1 8.19341 -5.43208 19.7188 -0.0090588 -0.000589352 0.00779391
268 1 8.09987 -3.05087 20.1275 0.0135806 0.000630903 0.0319803
270 1 8.03433 -0.638469 20.4676 0.0107822 -0.00127867 0.0369333
283 1 9.72325 -5.42894 19.7151 -0.0040234 0.00699716 -0.00485532
284 1 9.54638 -2.98026 19.6946 0.0134205 0.00721354 0.00842489
285 1 9.51278 -0.641239 19.7919 -0.0015478 0.00609239 0.0226367
294 1 10.4311 -4.16306 19.7425 -0.00989967 -0.000939003 -0.0034484
295 1 10.3975 -1.79977 19.6992 0.00132776 0.0107265 0.00843248
306 1 12.6496 -5.55341 19.9999 0 0 0
307 1 11.9041 -4.32686 19.9999 0 0 0
308 1 12.647 -3.09734 19.9999 0 0 0
309 1 11.9037 -1.86828 19.9999 0 0 0
310 1 12.6457 -0.637745 19.9999 0 0 0
323 1 14.0539 -5.56516 19.9999 0 0 0
324 1 14.0472 -3.10129 19.9999 0 0 0
325 1 14.0438 -0.638188 19.9999 0 0 0
71 1 -13.6826 0.591886 19.9999 0 0 0
72 1 -13.0424 1.82079 19.9999 0 0 0
73 1 -13.6895 3.04359 19.9999 0 0 0
74 1 -13.0413 4.27397 19.9999 0 0 0
75 1 -13.7195 5.48914 19.9999 0 0 0
86 1 -11.5623 1.82169 19.9999 0 0 0
87 1 -11.5564 4.27485 19.9999 0 0 0
96 1 -10.8416 0.598453 20.0806 -0.00899547 0.0028945 0.0180798
97 1 -10.8464 3.06031 19.9748 0.00112714 0.00567195 0.0078246
98 1 -10.8184 5.51792 19.8866 0.000810016 0.000925283 -0.000912449
111 1 -9.39256 0.624582 20.5577 -0.0152609 -0.000352874 0.0270701
112 1 -8.68695 1.89695 20.668 -0.00650393 -0.00138971 0.019785
113 1 -9.37155 3.11328 20.1207 -0.00112991 -0.000846558 0.0182728
114 1 -8.56152 4.34182 20.0897 0.0022178 0.00715276 0.022933
115 1 -9.33197 5.49952 19.7523 0.000792806 -0.00719514 0.0038816
126 1 -7.40577 1.89987 21.4209 -0.000169614 -0.00995211 0.0261704
51 1 -0.721772 1.22323 16.1588 -0.00523675 0.00676709 -0.00734459
10 1 -0.034342 3.22476 17.0972 -0.00884266 -0.0128962 0.00553082
32 1 -1.06397 2.3664 16.7954 0.00188619 -0.00661139 0.000560808
18 1 -2.89095 0.886779 17.6939 0.0125803 -0.00948675 0.0170626
56 1 -2.21589 2.1118 17.5631 -0.00581721 -0.00834026 0.0236449
3 1 -3.4735 0.610697 18.96 -0.00150195 -0.00363441 0.0126477
9 1 -0.0543114 3.69271 18.4622 0.00306725 -0.0023952 0.0038181
54 1 -2.35636 2.65267 18.8861 0.000500749 -0.00484686 0.00565145
17 1 -3.24299 1.84026 19.6754 -0.00471231 -9.02854e-05 0.00235376
30 1 -1.31169 3.5238 19.2311 -0.00531234 -0.00452283 0.0035346
47 1 -0.979646 3.30174 20.6357 -0.000841887 0.000949182 0.00403583
41 1 -3.05449 1.57865 21.0672 -0.00738022 0.00561201 0.0162842
6 1 -1.04452 1.08002 21.0643 0.0035728 -0.00075035 0.0364786
23 1 -1.80586 2.26271 21.1884 -0.0196544 0.0122297 0.00686591
43 1 -3.11351 0.127509 21.3935 -0.0184136 0.00137015 0.00766018
127 1 -7.25005 4.33004 20.7689 -0.00285023 0.00682484 0.0290002
136 1 -6.81253 0.641495 21.8674 0.0106926 -0.0044967 0.0271115
137 1 -6.65805 3.16436 21.4277 0.00221548 -0.000583635 0.0164444
138 1 -6.44964 5.48069 20.5892 0.00763579 0.00892869 0.0291643
153 1 -5.35411 3.12757 21.9589 -0.00624538 0.00703702 0.0150643
154 1 -4.61729 4.40013 21.9221 0.000425672 -0.00495031 0.0211459
155 1 -5.16628 5.59551 21.2312 0.00629568 0.0101637 0.0286407
178 1 -2.50055 5.56146 21.8973 0.00458614 -0.00448398 0.0254149
49 1 0.675258 1.21835 16.1528 -0.00976339 0.000158147 -0.0178214
31 1 1.13124 2.45604 16.7138 0.0135561 0.000224655 0.00891181
14 1 3.10837 0.94846 17.5322 -0.0090107 -0.00165677 0.015125
55 1 2.26604 2.1838 17.5711 0.00499444 -0.0116206 0.0163546
1 1 3.51971 0.644505 18.8694 -0.0076797 -0.0023561 0.0121495
53 1 2.28804 2.78106 18.8402 1.95543e-05 0.00299863 0.0121285
13 1 3.10084 1.82457 19.655 0.00138342 -0.000360926 -0.0018431
29 1 1.12454 3.53746 19.3204 -0.0100884 -0.00443392 0.0160794
45 1 0.505795 3.35638 20.6356 -0.0125104 -0.00449873 0.00861424
37 1 2.46734 1.52383 20.8756 0.00458352 0.00122009 0.00803023
5 1 0.261944 1.03529 20.9849 -0.00476997 -0.000729439 0.0255627
21 1 1.16076 2.14381 21.111 0.00754073 -0.00249051 0.00248482
39 1 2.30561 0.0391403 21.0619 0.00142655 0.00302443 0.016195
218 1 1.80724 5.52717 22.033 -0.00690401 0.0017418 0.0151742
234 1 3.88627 4.21027 21.8717 -0.00457566 -0.00135006 0.0227037
235 1 3.20113 5.41531 21.5842 -0.00536432 0.0048658 0.0152371
246 1 5.21194 1.88735 21.8391 -0.000391668 0.00109518 0.00940845
247 1 5.34481 4.23889 21.2118 0.00259428 0.00699313 0.0356088
256 1 5.89858 0.592049 21.6948 0.00205094 -0.000690691 0.014095
257 1 6.03677 3.02159 21.2791 -0.00188139 0.00771936 0.0302101
258 1 5.9738 5.32259 20.4172 -0.0147094 0.0112299 0.0382526
273 1 7.40723 2.88139 20.5026 0.00257923 0.00411048 0.0326003
275 1 7.4244 5.3552 19.8567 -0.0227867 -0.00317724 0.0203357
271 1 7.23289 0.51538 20.8736 0.00343456 0.00471627 0.0321903
272 1 7.98269 1.63251 20.3196 0.00524091 0.0114905 0.0378863
274 1 8.12293 4.1164 19.8854 0.00697697 -0.00738762 0.0238966
286 1 9.52556 1.71614 19.7453 0.00330168 0.000144569 0.0178192
287 1 9.65137 4.15662 19.6807 0.00207182 -0.00616635 0.00166381
296 1 10.3603 0.523453 19.6619 -0.00346634 -0.0051775 0.0112334
297 1 10.3617 2.91093 19.7157 -0.00329963 -0.00818417 0.00510057
298 1 10.4255 5.39086 19.7993 0.00187135 -0.00171985 -0.0042086
311 1 11.9034 0.592385 19.9999 0 0 0
312 1 12.6457 1.82255 19.9999 0 0 0
313 1 11.9038 3.05326 19.9999 0 0 0
314 1 12.6466 4.28301 19.9999 0 0 0
315 1 11.9041 5.51379 19.9999 0 0 0
326 1 14.0439 1.82305 19.9999 0 0 0
327 1 14.0468 4.28589 19.9999 0 0 0
76 1 -13.0678 6.73987 19.9999 0 0 0
77 1 -13.743 7.99662 19.9999 0 0 0
78 1 -13.076 9.22053 19.9999 0 0 0
79 1 -13.6781 10.6114 19.9999 0 0 0
80 1 -13.0646 11.9529 19.9999 0 0 0
88 1 -11.5395 6.7281 19.9999 0 0 0
89 1 -11.5535 9.18478 19.9999 0 0 0
90 1 -11.7099 11.6077 19.9999 0 0 0
99 1 -10.8439 7.95609 19.9517 0.00633383 0.00149317 -0.00275712
100 1 -10.9027 10.4758 19.9999 0 0 0
116 1 -8.55756 6.75331 19.6711 0.0118361 -0.000415605 -0.00180823
117 1 -9.38495 7.95084 19.7899 0.00825551 -0.00867791 -0.00714985
118 1 -8.67786 9.17171 19.8244 0.00116803 0.00327186 -0.00649697
119 1 -9.37207 10.4804 19.9999 0 0 0
120 1 -8.62688 11.6228 19.9999 0 0 0
130 1 -7.38724 11.6024 19.9999 0 0 0
129 1 -7.23849 9.14761 19.745 -0.00485779 0.00673909 -0.00231568
128 1 -7.08736 6.5828 19.8299 0.00872018 -0.00165377 0.010173
139 1 -6.50469 7.89984 19.7041 0.00945846 0.0106905 0.00521754
140 1 -6.60892 10.469 19.9999 0 0 0
156 1 -4.46153 6.85843 20.9065 0.00248772 0.00745609 0.0287786
157 1 -5.07075 7.9127 20.0798 0.0112757 -0.00366657 0.0244594
158 1 -4.34392 9.17327 19.9407 0.0122969 0.00341409 0.0145471
159 1 -5.14663 10.4689 19.9999 0 0 0
160 1 -4.36691 11.6023 19.9999 0 0 0
168 1 -3.03723 6.85281 21.319 -0.00775798 -0.00253638 0.0264318
169 1 -2.94128 9.08699 20.1943 0.0101088 0.0108909 0.01917
170 1 -3.12269 11.6018 19.9999 0 0 0
179 1 -2.25633 8.02364 20.9752 -0.000200495 0.00218092 0.0349457
180 1 -2.34103 10.4689 19.9999 0 0 0
196 1 -0.218409 6.79705 21.5918 0.000630838 -0.00338983 0.0269095
197 1 -0.786884 8.00933 21.0606 0.00454061 0.00822752 0.0296091
198 1 -0.178156 9.18287 20.4603 -0.00109423 0.0031397 0.0291724
199 1 -0.876963 10.4688 19.9999 0 0 0
200 1 -0.0953724 11.6018 19.9999 0 0 0
208 1 1.20662 6.8118 21.5493 0.00223641 -0.00299272 0.016969
209 1 1.23013 9.19653 20.3794 0.00261904 0.00761112 0.0314025
210 1 1.14924 11.6018 19.9999 0 0 0
219 1 1.89672 7.93817 20.8489 0.000496828 0.00996647 0.0337946
220 1 1.93091 10.4688 19.9999 0 0 0
236 1 3.91055 6.53417 20.7831 -0.0108144 0.0186679 0.0282598
237 1 3.29207 7.86731 20.4983 -0.00849135 0.0118996 0.0418139
238 1 3.98298 9.13124 19.9633 -0.00011954 0.00244847 0.0189521
239 1 3.39506 10.4687 19.9999 0 0 0
240 1 4.17656 11.6018 19.9999 0 0 0
248 1 5.2558 6.54243 20.2571 -0.0103176 0.0131768 0.0304679
249 1 5.36756 9.10858 19.7083 0.00135245 -0.00315447 0.00484802
250 1 5.4212 11.6017 19.9999 0 0 0
259 1 5.95888 7.80786 19.7086 0.00128495 -0.000184445 0.0115722
260 1 6.20335 10.4685 19.9999 0 0 0
277 1 7.46093 7.88611 19.6574 0.00401697 0.00125183 -0.00555518
276 1 8.17467 6.63361 19.6711 -0.00482672 -0.00737419 -0.00423202
278 1 8.27759 9.10948 19.8844 -0.00533734 0.00169213 -0.00720673
279 1 7.66711 10.4687 19.9999 0 0 0
280 1 8.44529 11.6024 19.9999 0 0 0
288 1 9.65223 6.62313 19.7937 -0.00624231 -0.000660318 -0.00747142
289 1 9.70579 9.14796 19.9847 -0.000962036 -0.00111298 -0.00482237
290 1 9.6873 11.6101 19.9999 0 0 0
299 1 10.4252 7.87219 19.9554 0.00662814 0.000188331 -0.00359549
300 1 10.4752 10.4755 19.9999 0 0 0
316 1 12.6473 6.74288 19.9999 0 0 0
317 1 11.9051 7.97805 19.9999 0 0 0
318 1 12.6583 9.19198 19.9999 0 0 0
319 1 11.9246 10.4937 19.9999 0 0 0
320 1 12.7709 11.5297 19.9999 0 0 0
328 1 14.0456 6.75188 19.9999 0 0 0
329 1 14.0237 9.17042 19.9999 0 0 0
330 1 13.9415 11.792 19.9999 0 0 0
148 1 -4.65155 -3.25269 22.3135 -0.00939444 -0.0072087 0.0134724
149 1 -5.41198 -1.96041 22.2095 -0.00350478 0.000379985 0.0117339
186 1 -0.274689 -5.66287 22.1876 -0.00407495 0.00152437 0.0274839
174 1 -2.54958 -4.45171 22.5684 -0.00742772 0.0104785 0.019458
150 1 -4.84692 -0.709389 22.7399 -0.00654999 -0.00073148 0.0241423
164 1 -3.302 -3.19805 22.8414 -0.0110177 -0.00295111 0.0155161
175 1 -2.66683 -1.96889 23.3513 -0.00294431 -0.00491973 0.00348636
187 1 -1.13143 -4.5257 22.801 0.00624407 0.0056859 0.0124867
188 1 -0.485221 -3.27165 23.2239 -0.00423389 0.00871336 0.0150285
165 1 -3.45677 -0.679828 23.3377 -0.00501698 0.0028799 0.00543491
189 1 -1.2089 -1.93367 23.4625 -0.00348015 0.00527944 0.000734985
190 1 -0.493744 -0.636646 23.6785 -0.00893578 0.00309926 0.0179782
203 1 1.16485 -5.63848 22.0964 0.00111909 -0.0024117 0.00406787
228 1 3.99251 -3.08945 22.2922 0.00110205 -0.01074 0.0187064
245 1 5.26295 -0.689792 22.1004 0.00131563 0.0111822 0.0057967
214 1 1.79648 -4.40629 22.4544 0.00381032 0.00139376 0.00976957
229 1 3.20502 -1.91668 22.8195 0.00568068 0.000140371 0.011642
230 1 3.93964 -0.673427 22.6955 -0.00372185 0.006381 0.0209724
204 1 1.02018 -3.26682 23.1007 0.00545198 0.00954154 0.00427227
215 1 1.73292 -2.01263 23.3066 -0.00303078 0.0144451 0.0126495
205 1 1.04208 -0.726117 23.4897 -0.00531194 0.00742055 0.03047
167 1 -3.23214 4.33436 22.3674 0.00108843 0.000170623 0.00977659
195 1 -1.07339 5.66133 22.1443 0.00202326 0.000998329 0.0312812
151 1 -5.44965 0.604554 22.3847 0.00323465 0.00229479 0.024246
152 1 -4.76069 1.93682 22.6452 -0.0094708 0.0113968 0.0131877
194 1 -0.443303 4.50915 22.8086 -0.00857731 -0.00915831 0.0213009
166 1 -3.37693 1.87549 23.1313 -0.0018791 0.00342424 0.0121071
177 1 -2.60722 3.19824 23.0663 0.00584225 0.00671078 0.0140575
193 1 -1.17995 3.24201 23.2199 0.0124879 -0.00625162 0.0153255
176 1 -2.63442 0.625637 23.4657 -0.00444508 0.00401101 0.0133738
191 1 -1.2018 0.63953 23.7139 -0.0135006 -0.000675145 0.00798215
192 1 -0.497202 1.97853 23.5332 -0.011665 -0.00240437 0.0128547
233 1 3.13026 3.0688 22.4495 0.0046527 -0.00601475 0.0295034
207 1 1.01383 4.47211 22.6832 0.00266521 -0.00279602 0.0226477
232 1 3.87661 1.82712 22.4993 -0.00577516 0.00428259 0.0164395
217 1 1.70241 3.18088 22.9015 0.0111027 -0.012824 0.00609652
231 1 3.1689 0.606596 22.9525 0.00186557 -0.00989347 0.0157665
206 1 0.953667 1.94168 23.348 -0.00422428 -0.00766 0.0167011
216 1 1.68806 0.626981 23.3546 0.00385378 0.00730903 0.0129851
