ITEM: TIMESTEP
39600
ITEM: NUMBER OF ATOMS
330
ITEM: BOX BOUNDS pp pp pp
-1.4715758017245314e+01 1.5057610017245315e+01
-1.2710055654020760e+01 1.2664508654020761e+01
-5.0001035148846022e+01 1.0000103514884636e+02
ITEM: ATOMS id type x y z vx vy vz
8 1 -0.98397 -0.97391 3.32279 -0.00110692 0.00136941 -0.0222265
27 1 -1.75639 0.269372 3.26579 -0.000557775 -0.000726664 -0.0332016
28 1 -1.79688 -2.076 3.78016 0.00247488 -0.00490992 -0.0376343
42 1 -3.00138 -0.122097 3.79997 -0.00618059 -0.0056747 -0.0270991
44 1 -3.11088 -1.50743 4.12073 0.00252104 0.00225282 -0.0217408
52 1 -1.22229 -3.00842 4.79134 -0.0106982 0.00597344 -0.0432071
20 1 -3.63451 -1.92284 5.42916 0.00865939 0.000147901 -0.0275657
36 1 -1.87739 -3.53422 5.96663 0.0123398 -0.00526748 -0.0404792
4 1 -4.40043 -1.10475 6.30148 -0.0134685 -0.00150272 -0.0417199
60 1 -3.2213 -3.05445 6.24387 0.00149243 -0.00619698 -0.0323168
12 1 -0.99507 -3.79001 7.06035 0.000872787 -0.000582008 -0.0478168
19 1 -4.32353 -1.56677 7.6618 -0.0144619 -0.0104444 -0.0295776
58 1 -3.64735 -2.83678 7.58768 -8.44167e-05 -0.00298754 -0.0509069
11 1 -1.37062 -3.91804 8.43294 -0.00107294 0.00254118 -0.0357104
34 1 -2.72512 -3.25434 8.54106 0.00751646 0.00227442 -0.0363693
43 1 -4.33259 -0.627803 8.7562 0.00230096 0.00166262 -0.0366645
33 1 -0.302844 -3.20725 9.08889 -0.000294181 -0.00694359 -0.0197638
50 1 0.158284 -2.99251 5.15285 -0.00873743 0.00714629 -0.035382
7 1 0.346029 -0.968204 3.84615 -0.00678399 -0.00286037 -0.0264783
26 1 0.968533 -2.01027 4.58875 -0.00856435 -0.0070941 -0.0336227
38 1 1.89105 0.0538662 5.25148 -0.000189868 0.00508814 -0.0291233
40 1 1.89968 -1.3994 5.44822 -0.011128 0.00421741 -0.026555
16 1 2.15516 -1.87691 6.80931 -0.0120348 -0.0087877 -0.0271787
35 1 0.319713 -3.49421 6.5099 -0.0043342 -0.00194916 -0.0305114
59 1 1.42443 -3.08107 7.32697 0.00921813 0.00144913 -0.0375193
2 1 2.48492 -0.978441 7.9012 -0.000532776 -0.0025377 -0.0197206
15 1 1.63437 -1.47141 8.93931 0.0102576 0.0040863 -0.0288991
57 1 1.06841 -2.78027 8.71451 -0.00509812 0.00287623 -0.0314336
39 1 0.882633 -0.501154 9.5687 -0.00281302 -0.000857993 -0.0265472
51 1 -1.15541 1.43234 3.86329 -0.0159382 0.00134813 -0.0422298
32 1 -1.75176 2.36432 4.63825 0.0110924 -0.0100268 -0.0256468
10 1 -0.810883 2.91459 5.5236 -0.00605158 -0.0148464 -0.0259175
18 1 -3.60671 0.744893 4.79081 0.000550494 0.00908749 -0.0309239
56 1 -2.95141 1.9391 5.31824 -9.32462e-05 -0.00333704 -0.0370167
3 1 -4.11984 0.326124 6.04981 -0.00542392 0.00710354 -0.0444366
54 1 -3.24157 2.08292 6.67566 -0.00229178 0.0149603 -0.0373322
9 1 -1.18856 3.19157 6.96044 -0.00299985 -0.0126373 -0.0160837
17 1 -4.26725 1.21253 7.21953 -0.0137111 -0.00706695 -0.0400248
30 1 -2.38687 2.89359 7.41469 -0.00779423 0.00327097 -0.0271268
29 1 -0.13548 2.96785 7.9368 0.00887104 -0.0108809 -0.0258027
47 1 -2.31273 2.43141 8.80089 0.0165766 0.00464948 -0.0474558
41 1 -4.33204 0.852431 8.58962 0.000422165 0.0120477 -0.0449297
45 1 -0.886289 2.37875 9.02724 -0.0106689 -0.00117056 -0.0454018
23 1 -3.16772 1.47599 9.35663 0.000288352 -0.00426566 -0.0359989
25 1 0.846725 0.267571 4.31465 -0.0075171 0.0033859 -0.0194087
49 1 0.181592 1.37824 4.24493 0.00343698 0.000606453 -0.0265371
31 1 0.521457 2.39599 5.23876 0.0134372 0.016632 -0.030311
14 1 2.29074 0.864231 6.23417 -0.0134836 -0.00225197 -0.0367961
55 1 1.44429 1.96341 6.20602 0.0162478 0.000537311 -0.0367516
1 1 2.55455 0.407285 7.52031 -0.00673755 0.00646623 -0.0248446
53 1 1.21334 2.30232 7.61567 -0.00718298 -0.000166906 -0.0299311
13 1 1.94252 1.36179 8.4389 -0.000892244 0.00249146 -0.0409931
37 1 1.03555 0.92628 9.5158 -0.00288749 -0.00662403 -0.0433926
24 1 -3.26922 -0.988315 9.67815 -0.00545271 -0.00111762 -0.0328414
48 1 -2.5148 -2.17008 9.51052 0.00251996 -0.00811308 -0.0465761
46 1 -1.06114 -2.19214 9.69374 0.00972439 -0.000187232 -0.0419795
22 1 -0.469165 -0.886723 9.89724 0.00945896 -0.00636095 -0.0360132
6 1 -2.62162 0.272056 9.91533 -0.00510214 -0.00635853 -0.0458189
5 1 -1.2539 0.213724 9.83068 -0.0165807 0.00342445 -0.0360567
21 1 -0.372093 1.25154 9.69727 0.00235167 0.00544792 -0.0285494
61 1 -13.6674 -11.9461 19.9999 0 0 0
62 1 -13.1228 -10.6724 19.9999 0 0 0
63 1 -13.7825 -9.34696 19.9999 0 0 0
64 1 -13.0772 -8.00396 19.9999 0 0 0
65 1 -13.7542 -6.79742 19.9999 0 0 0
81 1 -11.507 -10.5408 19.9999 0 0 0
82 1 -11.5331 -8.01671 19.9999 0 0 0
91 1 -10.7591 -11.6424 19.9999 0 0 0
92 1 -10.767 -9.21332 20.0134 0.00169352 0.000814136 -0.00926358
93 1 -10.8225 -6.76725 19.8068 0.00026542 -0.00205791 0.0251494
101 1 -9.52473 -11.6468 19.9999 0 0 0
102 1 -8.74136 -10.5124 19.9999 0 0 0
103 1 -9.39618 -9.19928 19.7922 0.00195181 0.00470523 -0.0153618
104 1 -8.73923 -7.91321 19.567 0.00210853 0.0149959 -0.00678308
105 1 -9.43581 -6.6226 19.3836 0.0127029 0.0026858 0.0128711
121 1 -7.27873 -10.5146 19.9999 0 0 0
122 1 -7.32091 -7.89817 19.6455 -0.0122625 0.00151905 -0.00212777
131 1 -6.50232 -11.6488 19.9999 0 0 0
132 1 -6.53563 -9.07551 19.8775 0.00792778 -0.00236214 0.00438961
141 1 -5.25854 -11.6473 19.9999 0 0 0
142 1 -4.47674 -10.5145 19.9999 0 0 0
143 1 -5.19065 -9.17876 19.7424 0.00899139 0.000839189 0.0210437
144 1 -4.59356 -7.96471 19.0216 0.00315647 0.00938382 0.00410292
161 1 -3.01281 -10.5144 19.9999 0 0 0
162 1 -3.13957 -8.10194 18.7457 -0.017885 0.00811568 0.00983589
171 1 -2.23133 -11.6474 19.9999 0 0 0
172 1 -2.39104 -9.26472 19.5332 -0.00405026 -0.00900829 -0.0125271
181 1 -0.986751 -11.6474 19.9999 0 0 0
182 1 -0.205108 -10.5143 19.9999 0 0 0
183 1 -0.975793 -9.31571 19.4529 0.005638 -0.0029978 -0.00514042
184 1 -0.204956 -8.27427 18.7053 -0.00461211 -0.000332864 0.00141006
133 1 -6.80479 -6.66474 18.9954 -0.0104357 0.00455295 -0.00412537
145 1 -5.34413 -6.74299 18.7682 -0.00604264 -0.000402232 -0.0191468
173 1 -2.45225 -6.98233 18.0751 -0.000840293 -0.00630851 -0.00102759
185 1 -1.01939 -7.12261 18.2101 0.0028493 -0.00243728 -0.00416064
201 1 1.25901 -10.5143 19.9999 0 0 0
202 1 1.25397 -8.23748 18.7417 0.00738544 0.00343454 0.0221765
211 1 2.0406 -11.6474 19.9999 0 0 0
212 1 1.95257 -9.18716 19.5064 0.0110919 -0.00331295 0.00566814
221 1 3.28523 -11.6473 19.9999 0 0 0
222 1 4.06705 -10.5143 19.9999 0 0 0
223 1 3.37017 -9.17112 19.7257 0.000624426 -0.0156176 -0.00136458
224 1 4.05844 -7.95096 19.4386 0.0099313 0.00867611 0.00696784
241 1 5.53108 -10.5143 19.9999 0 0 0
242 1 5.48625 -7.85261 19.5995 0.00142297 -0.00117537 0.00131593
251 1 6.31174 -11.6474 19.9999 0 0 0
252 1 6.23268 -9.10205 19.8662 -0.00666755 0.0103071 0.0143808
261 1 7.55524 -11.6498 19.9999 0 0 0
253 1 6.31115 -6.69 19.1052 -0.00669687 -0.00220828 0.00342697
225 1 3.32674 -6.73113 18.8803 1.76142e-05 -0.00557098 0.00819995
213 1 1.94778 -6.90017 18.4647 -0.000618354 -0.00116636 0.0120909
265 1 7.74684 -6.67291 19.3156 -0.000191805 -0.00577398 0.00144104
263 1 7.63185 -9.11272 19.8642 -3.49078e-05 -0.00597365 0.00402813
262 1 8.33779 -10.5154 19.9999 0 0 0
264 1 8.4454 -7.92901 19.6482 -0.00311051 -0.00848546 -0.00960665
281 1 9.79556 -10.5245 19.9999 0 0 0
282 1 9.91321 -7.99265 19.6729 -0.00203306 0.00736815 -0.000416703
291 1 10.5816 -11.6418 19.9999 0 0 0
292 1 10.5548 -9.20203 20.0672 0.00928533 -0.0022368 0.00057385
293 1 10.4852 -6.70454 19.8203 0.00136242 0.00694164 -0.010734
301 1 11.8019 -11.7522 19.9999 0 0 0
302 1 12.7161 -10.5156 19.9999 0 0 0
303 1 11.8934 -9.22642 19.9999 0 0 0
304 1 12.655 -8.00627 19.9999 0 0 0
305 1 11.8992 -6.77596 19.9999 0 0 0
321 1 14.087 -10.4984 19.9999 0 0 0
322 1 14.0714 -8.01298 19.9999 0 0 0
66 1 -13.0658 -5.54976 19.9999 0 0 0
67 1 -13.7179 -4.30197 19.9999 0 0 0
68 1 -13.0406 -3.0891 19.9999 0 0 0
69 1 -13.6883 -1.86008 19.9999 0 0 0
70 1 -13.0424 -0.636745 19.9999 0 0 0
83 1 -11.5387 -5.54743 19.9999 0 0 0
84 1 -11.5566 -3.09089 19.9999 0 0 0
85 1 -11.5625 -0.637245 19.9999 0 0 0
94 1 -10.8871 -4.30968 19.8434 0.000848352 0.0125563 -0.00925122
95 1 -10.8006 -1.82964 19.8291 -0.0125038 0.00630979 -0.00514485
106 1 -8.86944 -5.37661 18.9638 -0.000932505 0.00064628 0.00315408
107 1 -9.59443 -4.21298 19.1692 -0.0182989 -0.00183264 -0.00648643
108 1 -8.78863 -3.1233 18.9733 0.00683763 -0.00371025 -0.0140473
109 1 -9.43033 -1.89916 19.4662 -0.00900161 0.00308164 -0.0165833
110 1 -8.70754 -0.687676 19.4134 -0.00255262 -0.00633258 -0.022424
123 1 -7.43341 -5.40373 18.7015 -0.00169084 0.00919724 -0.00616864
124 1 -7.44385 -3.03675 18.6526 -0.00582823 0.00134374 0.00464965
125 1 -7.40741 -0.613767 18.9411 -0.0123674 0.00969829 -0.0213707
186 1 -0.376678 -5.76825 18.0595 -0.000536534 0.0068828 0.00252895
134 1 -6.71691 -4.22277 18.4323 -0.00257462 0.00310916 -0.00746068
135 1 -6.70763 -1.78708 18.5964 0.0130322 -0.00500613 -0.010225
146 1 -4.59929 -5.56097 18.3366 0.00518887 0.0115984 -0.00299218
147 1 -5.2639 -4.37036 18.2952 0.00870352 0.0101012 -0.0151127
163 1 -3.14376 -5.64038 18.2132 0.00383088 0.00420116 0.00202826
148 1 -4.56644 -3.08307 18.3719 -0.00115431 0.00135497 -0.00586346
149 1 -5.33619 -1.8601 18.574 -0.00701914 0.00855519 0.00176135
174 1 -2.53636 -4.42326 18.3197 0.02284 0.00776882 0.00980952
164 1 -3.19142 -3.11993 18.4594 0.00554384 0.0151947 0.00169353
187 1 -1.07663 -4.47282 18.2096 0.00435141 0.00674503 0.0205008
150 1 -4.64921 -0.655978 18.8943 0.00736295 0.0121887 0.0030571
175 1 -2.46554 -1.86435 18.6024 0.00445797 0.0196587 0.00706809
165 1 -3.1902 -0.661718 18.8038 -0.00509554 0.0129665 0.0121568
189 1 -1.07246 -1.8778 18.6005 0.00452916 -0.00814511 0.0201616
188 1 -0.433839 -3.17971 18.4836 -0.000211103 0.00759169 0.0287156
190 1 -0.41761 -0.602568 18.7882 0.00360767 0.000300731 0.032217
243 1 5.52617 -5.48645 18.8042 -0.00108899 0.00374558 -0.00590088
203 1 1.02003 -5.68291 18.2021 0.0100645 0.00269811 0.00950842
254 1 6.21769 -4.24535 18.776 0.00891979 0.000601106 -0.00641675
226 1 4.03609 -5.51126 18.6563 -0.00646981 0.0109075 0.00462243
227 1 3.18668 -4.34323 18.5306 0.00418606 0.010452 0.0107492
244 1 5.34298 -3.04873 18.7704 0.00913979 -0.0022474 0.00427778
214 1 1.68614 -4.33899 18.3002 0.0161909 0.0102138 0.0104674
255 1 6.14351 -1.87794 18.8949 0.0161662 0.0122589 0.0090459
228 1 3.87989 -3.081 18.6622 -0.00198132 -0.000936277 0.0146724
245 1 5.31314 -0.635909 19.0226 0.0195258 0.0126306 0.0103883
229 1 3.16143 -1.81879 18.8191 0.00273398 -0.000641274 0.0158695
230 1 3.81386 -0.58088 18.9861 0.0113007 -0.010547 0.018024
204 1 1.00474 -3.12414 18.6858 0.0190637 0.00687742 0.0394007
215 1 1.68583 -1.81776 18.9677 0.020753 -0.00717048 0.0269723
205 1 0.945305 -0.615461 19.0632 0.00917492 -0.00150404 0.0373031
269 1 7.6076 -1.90462 18.7989 0.0119544 0.0090467 -0.0115827
267 1 7.67662 -4.21827 18.9009 0.0141415 -0.00529545 0.00697132
283 1 9.79203 -5.44268 19.6343 0.000932777 0.0157315 -0.00566945
284 1 9.88373 -3.07231 19.3752 0.0125613 0.00800119 -0.00313691
285 1 9.75976 -0.689193 19.3673 0.00738449 0.00390022 -0.0141125
294 1 10.5405 -4.29217 19.7176 -0.0109045 -0.00398209 0.00628364
295 1 10.5826 -1.85579 19.4661 0.000599869 0.00459758 0.000523069
306 1 12.6496 -5.55341 19.9999 0 0 0
307 1 11.9041 -4.32686 19.9999 0 0 0
308 1 12.647 -3.09734 19.9999 0 0 0
309 1 11.9037 -1.86828 19.9999 0 0 0
310 1 12.6457 -0.637745 19.9999 0 0 0
323 1 14.0539 -5.56516 19.9999 0 0 0
324 1 14.0472 -3.10129 19.9999 0 0 0
325 1 14.0438 -0.638188 19.9999 0 0 0
268 1 8.48177 -3.07842 19.0659 -0.00240386 0.00489568 -0.00586638
270 1 8.35271 -0.719716 19.045 0.0151808 -0.00813949 -0.000305281
266 1 8.42705 -5.38255 19.2776 -0.00137339 -0.0156434 -0.00280002
71 1 -13.6826 0.591886 19.9999 0 0 0
72 1 -13.0424 1.82079 19.9999 0 0 0
73 1 -13.6895 3.04359 19.9999 0 0 0
74 1 -13.0413 4.27397 19.9999 0 0 0
75 1 -13.7195 5.48914 19.9999 0 0 0
86 1 -11.5623 1.82169 19.9999 0 0 0
87 1 -11.5564 4.27485 19.9999 0 0 0
96 1 -10.809 0.601728 19.9996 0.00939635 -0.00434541 -0.0215006
97 1 -10.9253 3.03935 19.7452 -0.00498511 0.00542729 0.0039222
98 1 -10.8712 5.5118 19.8763 -0.00910421 -0.00221622 0.0113882
111 1 -9.36445 0.59883 19.7003 -0.00946738 0.00697756 -0.0192639
112 1 -8.80987 1.81963 19.3102 -0.00442161 -0.000318649 -0.0288703
113 1 -9.59157 2.96636 19.1978 -0.0186838 0.00127144 -9.28155e-05
114 1 -8.98275 4.2296 18.7744 -0.000417506 0.00247574 0.000111276
115 1 -9.53784 5.42416 19.3381 -0.00510324 0.00499219 0.0195832
127 1 -7.54443 4.23703 18.4477 0.0190579 -0.0192182 -0.00753384
126 1 -7.41501 1.82633 18.8193 -0.00541951 0.00699818 -0.0238886
138 1 -6.84503 5.5035 18.6521 -0.00524628 -0.00753361 -0.00749027
136 1 -6.69716 0.589029 18.8634 -0.00109691 -0.0098252 -0.00845843
178 1 -2.49932 5.58409 18.3704 0.00668982 -0.00911236 -0.00527983
195 1 -1.05183 5.58801 18.2797 -0.00419355 -0.00631566 0.0155191
155 1 -5.43099 5.51062 18.4488 0.000117476 -0.0108539 -0.0121472
137 1 -6.79206 2.99108 18.435 0.00723143 -0.00226195 0.00587349
153 1 -5.32501 2.98911 18.3872 0.013876 -0.00792995 0.00741984
154 1 -4.6846 4.26136 18.2634 0.00750086 -0.0104019 -0.00527239
167 1 -3.21824 4.39264 18.3802 0.00265022 -0.00790557 0.0014101
152 1 -4.57228 1.8439 18.6138 0.000652097 -0.00142003 -0.00767611
151 1 -5.27636 0.591946 18.7142 -0.00918386 0.00453771 -0.0115796
194 1 -0.362597 4.35963 18.4696 -0.0191899 0.00506199 0.0139531
177 1 -2.54371 3.14887 18.3336 0.0144458 -0.0059209 0.0192787
166 1 -3.19271 1.86606 18.4631 0.00562906 -0.00234769 0.00512622
193 1 -1.14409 3.13101 18.5344 0.0126043 -0.00284833 0.0173795
176 1 -2.52659 0.558946 18.4845 -0.00092111 -0.00447842 0.0163281
191 1 -1.13603 0.609429 18.6658 0.00254324 -0.00703305 0.0211602
192 1 -0.49302 1.9434 18.7496 -0.000661826 0.000229152 0.0188817
258 1 6.33625 5.37769 18.8916 -0.00508658 -0.00959181 -0.0112889
235 1 3.23288 5.50819 18.7089 -0.00592947 -0.0131334 0.00571085
218 1 1.71791 5.5017 18.4215 0.0123068 0.00116986 0.0151029
257 1 6.1625 2.96564 18.6157 0.0136399 -0.00180078 -0.00796111
247 1 5.42953 4.24154 18.7574 0.00126135 -0.00601701 -0.00583082
234 1 3.91125 4.26813 18.7815 0.0118726 -0.00704996 0.00491619
207 1 1.01183 4.25742 18.4208 0.00886663 -0.0075544 0.0317293
246 1 5.30382 1.83111 18.8438 0.00926477 -0.000948595 0.00904977
233 1 3.15669 2.98398 18.8042 -0.00157574 -0.0174239 0.0199633
232 1 3.82986 1.73342 18.9811 0.00507788 0.0189941 0.0275509
256 1 6.13616 0.538487 18.9145 0.0035055 -0.00958411 0.00219691
217 1 1.69694 3.00228 18.6085 -0.00182275 -0.00496523 0.029238
231 1 2.96401 0.600069 19.1324 0.0140967 -0.0113107 0.0328816
206 1 0.872475 1.86988 18.879 0.00341373 0.00868815 0.0228484
216 1 1.5586 0.609358 19.1114 0.00153248 -0.0146418 0.0203878
271 1 7.63858 0.562381 18.85 -0.000391133 -0.0025858 -0.018106
273 1 7.66102 3.10477 18.647 0.0149705 0.00388949 -0.00188702
275 1 7.79828 5.4298 18.954 -0.00528158 -0.00101129 -0.00111506
286 1 9.80751 1.78973 19.3426 0.00521428 0.00936311 -0.00222744
287 1 9.91822 4.26185 19.4518 -0.00771052 0.0086136 0.00918125
296 1 10.5249 0.592125 19.558 0.0248247 0.00770996 -0.0214436
297 1 10.5371 3.02464 19.55 0.0140999 -0.0117588 0.00379752
298 1 10.5441 5.51983 19.7502 -0.0125654 -0.00438844 0.00174658
311 1 11.9034 0.592385 19.9999 0 0 0
312 1 12.6457 1.82255 19.9999 0 0 0
313 1 11.9038 3.05326 19.9999 0 0 0
314 1 12.6466 4.28301 19.9999 0 0 0
315 1 11.9041 5.51379 19.9999 0 0 0
326 1 14.0439 1.82305 19.9999 0 0 0
327 1 14.0468 4.28589 19.9999 0 0 0
272 1 8.37862 1.82917 18.783 0.00173964 0.00824878 -0.00302684
274 1 8.52282 4.17224 18.9089 0.00123056 -0.00123876 -0.00065329
76 1 -13.0678 6.73987 19.9999 0 0 0
77 1 -13.743 7.99662 19.9999 0 0 0
78 1 -13.076 9.22053 19.9999 0 0 0
79 1 -13.6781 10.6114 19.9999 0 0 0
80 1 -13.0646 11.9529 19.9999 0 0 0
88 1 -11.5395 6.7281 19.9999 0 0 0
89 1 -11.5535 9.18478 19.9999 0 0 0
90 1 -11.7099 11.6077 19.9999 0 0 0
99 1 -10.9336 7.98519 19.8551 0.00307199 0.00243767 -0.0033761
100 1 -10.9027 10.4758 19.9999 0 0 0
116 1 -8.92809 6.73681 19.2279 0.00816622 0.00290018 0.00170534
117 1 -9.48762 7.89159 19.6906 -0.00289964 0.00607492 -0.00292052
118 1 -8.74135 9.10741 20.0138 -0.0064092 -0.00150507 -0.0256966
119 1 -9.37207 10.4804 19.9999 0 0 0
120 1 -8.62688 11.6228 19.9999 0 0 0
130 1 -7.38724 11.6024 19.9999 0 0 0
128 1 -7.48799 6.71055 19.1627 -0.00200077 -0.00699524 -0.00219144
129 1 -7.32967 9.1443 19.9807 0.0168178 0.00439829 -0.00814218
139 1 -6.71323 7.87385 19.6065 0.000676944 -0.0169864 0.00837229
140 1 -6.60892 10.469 19.9999 0 0 0
157 1 -5.24964 7.91723 19.2318 -0.00351686 -0.0107333 0.0101178
158 1 -4.51315 9.13113 19.6586 -0.00411647 -0.00726351 -0.00388826
159 1 -5.14663 10.4689 19.9999 0 0 0
160 1 -4.36691 11.6023 19.9999 0 0 0
169 1 -3.01785 9.10583 19.5994 -0.00116066 0.00963022 0.000673633
170 1 -3.12269 11.6018 19.9999 0 0 0
179 1 -2.36546 8.06318 18.9251 -0.0152442 -0.00139811 -0.00767895
180 1 -2.34103 10.4689 19.9999 0 0 0
197 1 -0.889477 8.18775 18.7091 0.00707682 -0.00926343 -0.0115993
198 1 -0.106843 9.21642 19.3562 -0.00337509 0.00167468 0.00763989
199 1 -0.876963 10.4688 19.9999 0 0 0
200 1 -0.0953724 11.6018 19.9999 0 0 0
156 1 -4.62759 6.71643 18.5018 -0.00632499 -0.0057371 0.000662386
168 1 -3.21012 6.87148 18.4813 -0.00568867 -0.017451 -0.00636495
196 1 -0.251326 6.8685 18.338 0.000846156 -0.0149172 0.0115414
209 1 1.2978 9.1561 19.4246 -0.000769683 0.00637069 0.00267303
210 1 1.14924 11.6018 19.9999 0 0 0
219 1 1.98049 7.86382 19.2467 0.00368323 0.00153767 0.018955
220 1 1.93091 10.4688 19.9999 0 0 0
237 1 3.44835 7.9254 19.444 0.00790115 -0.00708766 0.00324645
238 1 4.05005 9.15897 19.9742 0.0200153 -0.0023768 0.00711622
239 1 3.39506 10.4687 19.9999 0 0 0
240 1 4.17656 11.6018 19.9999 0 0 0
249 1 5.50094 9.11505 19.9655 0.00917044 0.0073075 -0.0110304
250 1 5.4212 11.6017 19.9999 0 0 0
259 1 6.26526 7.91733 19.5866 0.00360188 0.00757268 0.00343177
260 1 6.20335 10.4685 19.9999 0 0 0
248 1 5.56223 6.62227 19.1715 0.00573957 0.00794379 0.00967065
236 1 4.11666 6.70436 19.0166 -0.00360181 0.00225529 0.00455494
208 1 1.18114 6.87006 18.454 0.00232507 0.00628297 0.00323183
277 1 7.73135 7.90545 19.464 0.0137987 -0.00384062 0.0010436
276 1 8.45142 6.65477 19.2571 -0.0132885 -0.0124177 0.00293104
278 1 8.42958 9.12189 19.8648 0.00258589 -0.00538807 -0.00200739
279 1 7.66711 10.4687 19.9999 0 0 0
280 1 8.44529 11.6024 19.9999 0 0 0
288 1 9.84918 6.7064 19.6119 0.00271769 -0.00728589 0.00231076
289 1 9.81404 9.18864 19.8341 0.00793393 0.0135899 -0.00307599
290 1 9.6873 11.6101 19.9999 0 0 0
299 1 10.5464 7.98225 19.7963 0.0125763 0.000465383 -0.0015079
300 1 10.4752 10.4755 19.9999 0 0 0
316 1 12.6473 6.74288 19.9999 0 0 0
317 1 11.9051 7.97805 19.9999 0 0 0
318 1 12.6583 9.19198 19.9999 0 0 0
319 1 11.9246 10.4937 19.9999 0 0 0
320 1 12.7709 11.5297 19.9999 0 0 0
328 1 14.0456 6.75188 19.9999 0 0 0
329 1 14.0237 9.17042 19.9999 0 0 0
330 1 13.9415 11.792 19.9999 0 0 0
