ITEM: TIMESTEP
45800
ITEM: NUMBER OF ATOMS
330
ITEM: BOX BOUNDS pp pp pp
-1.4715758017245314e+01 1.5057610017245315e+01
-1.2710055654020760e+01 1.2664508654020761e+01
-5.0001035148846022e+01 1.0000103514884636e+02
ITEM: ATOMS id type x y z vx vy vz
8 1 -0.960421 -0.931158 -1.14821 -0.00983989 -0.00382795 -0.0343923
28 1 -1.80515 -2.06958 -0.621398 0.012875 0.00209647 -0.033876
42 1 -3.00282 0.0143762 -0.449017 0.000147847 0.00158098 -0.032405
44 1 -2.92915 -1.41079 -0.14023 0.00808751 0.00369198 -0.0288619
52 1 -1.22979 -3.08365 0.310771 -0.00563254 -0.000591856 -0.0402497
20 1 -3.60078 -1.95646 1.03418 -0.00633781 0.0218404 -0.0365543
50 1 0.0705596 -2.99358 0.853836 -0.00817786 0.00887667 -0.0318081
36 1 -1.92305 -3.64159 1.45701 0.00303335 -0.0124334 -0.0346627
4 1 -4.30359 -1.10066 1.93701 -0.00597341 -0.0140227 -0.0302915
60 1 -3.13124 -3.06739 1.8157 -0.00885441 -0.00246123 -0.0465156
12 1 -1.08028 -3.96482 2.60613 0.00389869 -0.00329187 -0.0236055
35 1 0.153236 -3.45332 2.17218 0.0186391 -0.00893128 -0.0321092
19 1 -4.55093 -1.76806 3.19249 0.00571364 0.00811762 -0.0403649
58 1 -3.60228 -2.90984 3.12609 -0.00745527 -0.0023763 -0.0231298
7 1 0.302955 -0.956806 -0.417438 0.00302641 0.0171662 -0.0400593
26 1 0.911637 -1.96962 0.366241 -0.0147789 -0.0043436 -0.0279525
40 1 1.64336 -1.39497 1.45075 -0.0154662 0.00455873 -0.0241393
38 1 1.76215 0.0197799 1.10351 -0.00559304 0.00600866 -0.042388
16 1 1.97418 -2.03468 2.7149 -0.0110603 0.00397977 -0.0331247
59 1 1.04677 -3.04954 3.13158 0.0122629 -0.0208249 -0.0367806
27 1 -1.73025 0.284521 -1.03701 -0.000523344 0.00762984 -0.0267783
51 1 -1.13507 1.41932 -0.490702 0.00680088 0.0059174 -0.0389216
32 1 -1.74592 2.23826 0.513807 -0.00632647 -0.0108018 -0.0283921
18 1 -3.47878 0.697816 0.659016 0.00521353 -0.00561331 -0.0287556
10 1 -0.854931 2.58821 1.64777 -0.0119306 -0.00714041 -0.0354655
56 1 -3.0575 2.02037 1.05492 0.0101359 -0.00362942 -0.0375685
3 1 -4.17938 0.232317 1.77602 -0.0110472 0.00338976 -0.0340547
54 1 -3.46802 2.21411 2.46286 -0.0116082 -0.000340785 -0.0204581
17 1 -4.39696 1.12424 2.88932 -0.0102027 0.015697 -0.0365434
9 1 -1.31838 3.01314 2.94271 0.00424973 0.00198944 -0.0364148
30 1 -2.69095 2.89729 3.44297 -0.0120526 -0.000210775 -0.0367094
25 1 0.818453 0.267398 0.0771968 0.00823639 -0.0042057 -0.0319168
49 1 0.176405 1.51178 0.0385865 0.00216599 -0.00838418 -0.0312514
31 1 0.415679 2.26581 1.15531 0.0134139 6.06037e-05 -0.0377794
14 1 1.93939 0.881654 2.24166 0.0038165 -0.00891288 -0.0345497
55 1 1.31535 2.12869 2.25717 0.00409169 0.0109684 -0.0367124
11 1 -1.55411 -3.76237 3.9499 0.00421524 0.00458254 -0.0371717
34 1 -2.91354 -3.29965 4.22322 0.00129706 0.00218203 -0.0413597
43 1 -4.46653 -0.894149 4.37388 -0.00382257 0.0043816 -0.033579
33 1 -0.586835 -3.12011 4.87994 -0.0076204 0.00231262 -0.0347832
24 1 -3.70727 -1.2552 5.53713 -0.00201784 0.00467606 -0.0406578
48 1 -2.76363 -2.30454 5.33364 -0.00846949 0.00107461 -0.0203363
46 1 -1.4098 -2.30834 5.69962 0.00637577 -0.00018494 -0.0413839
22 1 -0.848044 -1.15186 6.03112 0.0045282 -0.0182928 -0.0393218
2 1 2.18128 -1.15751 3.83603 0.0105375 0.0015193 -0.0289824
15 1 1.40386 -1.66952 4.86501 -0.00140442 -0.000397394 -0.0336007
57 1 0.687345 -2.78591 4.4239 0.00420593 0.00209911 -0.0358536
39 1 0.446776 -0.848389 5.51661 -0.0178419 -0.000272661 -0.0208129
29 1 -0.341331 2.80904 4.00246 0.00488028 -0.00880427 -0.02628
47 1 -2.66978 2.37098 4.79935 0.000419934 -0.00310149 -0.035887
41 1 -4.48497 0.602022 4.2683 -0.0130365 -0.0144745 -0.0412807
45 1 -1.26877 2.38422 5.13542 0.00323611 0.00755327 -0.0428875
23 1 -3.65415 1.31562 5.21283 0.00101065 -0.00768035 -0.0286036
6 1 -3.07271 0.0818649 5.87566 -0.00575349 -0.0151419 -0.0360084
5 1 -1.65005 0.0717196 6.1654 -0.00392106 0.0027147 -0.0246673
21 1 -0.755005 1.17565 5.80524 -0.00663253 0.00240737 -0.048424
1 1 2.12803 0.32617 3.66888 0.00723174 -0.00507238 -0.0308829
53 1 0.940297 2.39707 3.6625 -0.000705184 0.00884163 -0.0269353
13 1 1.41523 1.19795 4.52272 -0.00670371 0.000910819 -0.0107912
37 1 0.570543 0.610906 5.51689 -0.0192775 -0.00524879 -0.0540668
61 1 -13.6674 -11.9461 19.9999 0 0 0
62 1 -13.1228 -10.6724 19.9999 0 0 0
63 1 -13.7825 -9.34696 19.9999 0 0 0
64 1 -13.0772 -8.00396 19.9999 0 0 0
65 1 -13.7542 -6.79742 19.9999 0 0 0
81 1 -11.507 -10.5408 19.9999 0 0 0
82 1 -11.5331 -8.01671 19.9999 0 0 0
91 1 -10.7591 -11.6424 19.9999 0 0 0
92 1 -10.8543 -9.26299 19.7479 -0.00794694 -0.00508028 -0.00761188
93 1 -10.787 -6.77777 19.9575 -0.00336903 0.00417554 -0.00727201
101 1 -9.52473 -11.6468 19.9999 0 0 0
102 1 -8.74136 -10.5124 19.9999 0 0 0
103 1 -9.46139 -9.2627 19.7566 0.00535983 -0.00343977 -0.0096761
104 1 -8.61309 -8.09655 19.6671 -0.0120219 -0.00640814 0.00531491
105 1 -9.33705 -6.79146 19.705 -0.00594102 -0.00327211 0.00862698
121 1 -7.27873 -10.5146 19.9999 0 0 0
122 1 -7.18747 -8.00303 19.6491 -0.00660454 -0.00583844 0.0131253
131 1 -6.50232 -11.6488 19.9999 0 0 0
132 1 -6.52998 -9.28059 19.9952 0.00522804 -0.00385752 0.0039013
141 1 -5.25854 -11.6473 19.9999 0 0 0
142 1 -4.47674 -10.5145 19.9999 0 0 0
143 1 -5.14485 -9.1695 20.0809 -0.0078351 -0.00265176 0.01522
144 1 -4.38462 -7.95363 19.8964 -0.00436487 0.00128327 0.0368923
161 1 -3.01281 -10.5144 19.9999 0 0 0
162 1 -2.9239 -7.97158 20.1918 0.000811926 -0.0057034 0.027204
171 1 -2.23133 -11.6474 19.9999 0 0 0
172 1 -2.25914 -9.23317 20.0522 0.0105064 0.000709836 -0.00566853
181 1 -0.986751 -11.6474 19.9999 0 0 0
182 1 -0.205108 -10.5143 19.9999 0 0 0
183 1 -0.871412 -9.19989 20.2596 -0.00596466 0.0105751 -0.00379433
184 1 -0.153769 -7.97253 20.5746 -0.00539702 -0.00684468 1.06667e-05
133 1 -6.49133 -6.75265 19.2978 0.00980286 -0.00334725 0.0160996
145 1 -5.00427 -6.6972 19.5982 -8.24938e-05 -0.0093682 0.0144261
173 1 -2.22004 -6.761 20.487 -0.00807415 0.00576053 0.010174
185 1 -0.870812 -6.75769 20.7388 -0.00989435 -0.0100367 0.013134
201 1 1.25901 -10.5143 19.9999 0 0 0
202 1 1.29284 -8.03319 20.619 -0.00654137 0.00241298 0.011867
211 1 2.0406 -11.6474 19.9999 0 0 0
212 1 2.02493 -9.2581 20.2477 -5.30479e-05 0.00251772 0.0124765
221 1 3.28523 -11.6473 19.9999 0 0 0
222 1 4.06705 -10.5143 19.9999 0 0 0
223 1 3.42361 -9.22013 19.9133 0.013124 0.0050236 0.0197476
224 1 4.04342 -7.97073 20.023 0.00362385 0.00169398 0.0167632
241 1 5.53108 -10.5143 19.9999 0 0 0
242 1 5.48142 -7.96513 19.7861 -0.00320164 0.00101285 0.00379095
251 1 6.31174 -11.6474 19.9999 0 0 0
252 1 6.22637 -9.17076 19.8777 -0.000939074 -0.0106242 0.0125866
261 1 7.55524 -11.6498 19.9999 0 0 0
253 1 6.12497 -6.70984 19.7041 0.00190508 0.0002321 0.0165101
225 1 3.41678 -6.82966 20.3772 0.00492442 -0.0077244 0.0143216
213 1 1.96207 -6.87083 20.7516 0.00159244 -0.0154585 0.0141012
265 1 7.57821 -6.6526 19.5861 0.00209262 -0.000809341 0.0153093
263 1 7.5719 -9.18444 19.8666 -0.00142168 0.0087037 0.0080056
262 1 8.33779 -10.5154 19.9999 0 0 0
264 1 8.28017 -7.87664 19.7215 -0.0119182 -0.010497 0.000554868
281 1 9.79556 -10.5245 19.9999 0 0 0
282 1 9.72575 -7.88018 19.8029 -0.00563711 -0.00452643 6.66202e-06
291 1 10.5816 -11.6418 19.9999 0 0 0
292 1 10.4774 -9.08947 19.9657 0.0024217 0.00607437 -0.0114253
293 1 10.5493 -6.65605 19.9596 -0.00805394 -0.00200194 -0.00665002
301 1 11.8019 -11.7522 19.9999 0 0 0
302 1 12.7161 -10.5156 19.9999 0 0 0
303 1 11.8934 -9.22642 19.9999 0 0 0
304 1 12.655 -8.00627 19.9999 0 0 0
305 1 11.8992 -6.77596 19.9999 0 0 0
321 1 14.087 -10.4984 19.9999 0 0 0
322 1 14.0714 -8.01298 19.9999 0 0 0
66 1 -13.0658 -5.54976 19.9999 0 0 0
67 1 -13.7179 -4.30197 19.9999 0 0 0
68 1 -13.0406 -3.0891 19.9999 0 0 0
69 1 -13.6883 -1.86008 19.9999 0 0 0
70 1 -13.0424 -0.636745 19.9999 0 0 0
83 1 -11.5387 -5.54743 19.9999 0 0 0
84 1 -11.5566 -3.09089 19.9999 0 0 0
85 1 -11.5625 -0.637245 19.9999 0 0 0
94 1 -10.8617 -4.27224 19.6574 0.0160837 -0.0169682 0.00210418
95 1 -10.8441 -1.87615 20.1612 -0.00504147 -0.00591145 0.00898715
106 1 -8.74185 -5.48222 19.3615 0.00442779 -0.00852282 0.00773368
107 1 -9.4502 -4.26357 19.2693 0.00682301 -0.0171606 -0.00210211
108 1 -8.64075 -2.99444 19.2578 -0.0077553 0.00757023 0.0115422
109 1 -9.38145 -1.89155 19.8667 -0.00927472 -0.00772916 0.00941489
110 1 -8.59326 -0.626271 19.6836 0.000555637 -0.00945116 0.0200013
123 1 -7.25294 -5.58988 19.1579 -0.00487345 0.00663043 -0.00183389
124 1 -7.19073 -2.98084 19.0742 0.00452707 -0.00466108 0.031392
125 1 -7.2087 -0.582565 19.1979 0.00877236 -0.00415662 0.0353073
186 1 -0.0835501 -5.54134 20.5951 4.54553e-05 0.00192805 0.0289928
134 1 -6.49578 -4.3245 19.1656 -0.00503675 -0.0101225 0.00492586
135 1 -6.36193 -1.79597 18.943 0.0130877 0.00879872 0.0384172
146 1 -4.31313 -5.56048 19.7066 0.00586157 0.00641255 0.0307093
147 1 -5.0239 -4.2775 19.2665 -0.000533881 -0.00878464 0.00608595
163 1 -2.91132 -5.54964 20.1745 0.00803165 -0.00277327 0.0179255
148 1 -4.30656 -3.01159 19.2316 -0.000977502 0.00791734 0.0113795
149 1 -4.89652 -1.77771 18.9725 0.00538905 0.0124565 0.0315978
174 1 -2.25 -4.33071 20.2006 -0.00134972 0.00449312 0.00424009
164 1 -2.81797 -3.13262 19.5913 -0.00789616 0.000771288 0.0108981
187 1 -0.757173 -4.3339 20.4343 -0.0105504 0.0052009 0.00762833
150 1 -3.97935 -0.57483 18.8336 -0.000633483 0.00567729 -0.00106589
175 1 -2.03431 -2.00606 19.5188 -0.000911956 -0.00550626 0.0117463
165 1 -2.63942 -0.664083 19.2468 0.0105254 -0.0022052 -0.00393769
189 1 -0.71483 -1.96623 20.0103 -0.0212975 0.00626542 0.0112908
188 1 -0.00497586 -3.12669 20.4807 -0.0226721 0.0103077 0.01152
190 1 -0.0822162 -0.740139 19.9551 0.0108035 0.00381153 -0.000700578
243 1 5.4628 -5.46594 19.9804 -0.00597844 -0.00519806 0.00925698
203 1 1.35695 -5.60381 20.7736 -0.00243613 -0.00452013 0.0177515
254 1 6.21973 -4.26424 19.8887 -0.0145731 -0.000117221 0.00342894
226 1 4.1307 -5.6314 20.4001 -0.0175389 0.00192978 0.0229542
227 1 3.5473 -4.35693 20.4997 -0.0204995 0.00146968 0.00769365
244 1 5.56971 -2.95878 20.0645 0.00853002 -0.00512856 0.00828118
214 1 2.10213 -4.45215 20.589 -0.00791378 0.0114811 0.00200569
255 1 6.2009 -1.73234 19.7554 -0.00237418 -0.0058909 -0.000516674
228 1 4.19902 -3.09462 20.3199 -0.0164438 0.00241744 0.0122636
245 1 5.34976 -0.607621 19.7539 -0.00790336 0.00202789 0.0201197
229 1 3.3514 -1.96957 20.2333 -0.00728367 -0.00618281 -0.0052316
230 1 3.94313 -0.677996 19.9958 0.00572956 0.000547724 0.00916889
204 1 1.39949 -3.17475 20.4501 -0.0114924 -0.0125207 0.0164574
215 1 2.00516 -1.90213 20.27 0.00194671 -0.0173327 0.00636038
205 1 1.24178 -0.649337 20.1034 0.0126744 -0.00239879 -0.00639272
269 1 7.64579 -1.77224 19.7032 -0.00731622 -0.0171166 0.0260841
267 1 7.62774 -4.18613 19.5012 -0.00780094 -0.00986419 0.0266929
283 1 9.77664 -5.47689 19.7728 0.0106527 -0.000662352 -0.00300853
284 1 9.7477 -3.06202 19.8741 0.0025576 0.00791017 0.0152805
285 1 9.8376 -0.583514 19.748 -0.00983145 -0.0016668 0.00984846
294 1 10.5253 -4.28083 19.8023 -0.0125189 -0.00079562 0.014055
295 1 10.5118 -1.81597 19.8878 0.012261 0.0042644 0.00328523
306 1 12.6496 -5.55341 19.9999 0 0 0
307 1 11.9041 -4.32686 19.9999 0 0 0
308 1 12.647 -3.09734 19.9999 0 0 0
309 1 11.9037 -1.86828 19.9999 0 0 0
310 1 12.6457 -0.637745 19.9999 0 0 0
323 1 14.0539 -5.56516 19.9999 0 0 0
324 1 14.0472 -3.10129 19.9999 0 0 0
325 1 14.0438 -0.638188 19.9999 0 0 0
268 1 8.33789 -2.9904 19.7643 -0.01485 0.00179396 0.0200049
270 1 8.40495 -0.655564 19.7622 -0.00551209 -0.00869061 0.0133203
266 1 8.37481 -5.40837 19.4034 0.00206332 0.00915874 -0.00489292
71 1 -13.6826 0.591886 19.9999 0 0 0
72 1 -13.0424 1.82079 19.9999 0 0 0
73 1 -13.6895 3.04359 19.9999 0 0 0
74 1 -13.0413 4.27397 19.9999 0 0 0
75 1 -13.7195 5.48914 19.9999 0 0 0
86 1 -11.5623 1.82169 19.9999 0 0 0
87 1 -11.5564 4.27485 19.9999 0 0 0
96 1 -10.9083 0.572342 20.0264 0.00541697 0.00195006 -0.00807157
97 1 -10.8508 3.0176 19.8963 0.0127009 -0.00139886 0.00931487
98 1 -10.875 5.4864 19.7065 0.000558464 -0.00254938 0.0083832
111 1 -9.39687 0.562466 19.8733 0.00122048 -0.00306938 0.0142385
112 1 -8.65107 1.74954 19.5714 0.00574058 0.0302701 0.00238363
113 1 -9.44321 2.95542 19.5771 0.00517396 0.0143065 0.00709508
114 1 -8.60633 4.15331 19.3737 -0.000172874 0.00297593 0.0209016
115 1 -9.41942 5.41258 19.5323 -0.00443514 0.00295177 -8.77524e-05
126 1 -7.12309 1.78369 19.2554 0.0187187 -0.0112013 0.0254708
127 1 -7.15856 4.19802 19.0567 0.0010958 -0.000803597 0.00441972
138 1 -6.4038 5.49064 19.1723 -0.00563809 0.00878384 0.0209209
136 1 -6.28803 0.57732 19.0393 0.00597847 -0.00304471 0.0384377
178 1 -2.2491 5.48993 20.4552 -0.00619639 -6.73803e-05 0.0199633
195 1 -0.83123 5.59284 20.7288 -0.0256684 0.00822844 0.0158765
155 1 -4.97845 5.40327 19.363 0.00022188 0.00472641 0.0184399
137 1 -6.44452 2.97471 19.2758 0.00561821 0.00171936 0.00687484
153 1 -4.92353 3.01894 19.3365 0.00681788 -0.00144662 0.0158589
154 1 -4.28279 4.23978 19.5622 0.00661545 0.00881724 0.00937805
167 1 -3.00574 4.31013 20.193 -0.00921765 0.00652551 0.00647639
152 1 -4.10234 1.8271 19.2111 -0.00441679 0.0110758 0.0214948
151 1 -4.80244 0.627127 18.7383 -0.0025069 0.0117116 0.0355765
194 1 -0.0438729 4.40481 20.6971 -0.0116448 0.00933538 0.00390852
177 1 -2.12924 3.17227 20.0563 -0.0100853 -0.0152223 0.0218172
166 1 -2.69978 1.90382 19.5896 -0.0149245 -0.00340542 0.0154678
193 1 -0.766793 3.16363 20.4084 -0.000133746 -0.00775292 -0.00204934
176 1 -1.96758 0.613395 19.5586 0.00952243 -0.00540966 0.00236011
191 1 -0.628135 0.637964 19.9325 -0.010021 0.0101933 -0.0145449
192 1 -0.0324055 1.92774 20.195 -0.00976883 0.000504786 0.00357208
258 1 6.29058 5.43338 19.8995 -0.00664692 0.0117662 0.00753308
235 1 3.44007 5.56326 20.4315 -0.0186675 -0.00571853 0.0166664
218 1 2.01193 5.57124 20.3959 -0.00226673 0.000327048 0.0157736
257 1 6.2527 2.97606 20.1156 0.0011418 -0.000332401 0.00905833
247 1 5.51396 4.26495 20.1346 -0.0141139 0.000526717 0.000258244
234 1 4.09184 4.32401 20.3735 -0.000619778 -0.00461713 0.0139989
207 1 1.375 4.40053 20.6398 -0.0142307 -0.000309773 0.0212169
246 1 5.49166 1.85157 20.0728 -0.0104715 -0.000594596 0.0128993
233 1 3.44518 3.03828 20.6151 -0.0046073 0.00763594 0.00254082
232 1 4.08968 1.82703 20.3247 -0.00146444 0.00565459 0.0134135
256 1 6.13817 0.539589 19.8371 -0.00278671 0.00491739 0.0161721
217 1 1.99717 3.16698 20.5013 -0.0192387 0.0161219 0.00599906
231 1 3.32555 0.555494 20.1536 0.00634232 -0.000723551 0.000268886
206 1 1.35259 1.9727 20.2946 -0.00648619 -0.003215 0.00324938
216 1 1.95148 0.585879 20.2025 0.00870829 -0.00719236 -0.0132386
271 1 7.56744 0.528568 19.7502 -0.000234767 0.00277405 0.0109255
273 1 7.67403 2.95419 19.9024 0.0200127 -0.00411343 0.0180353
275 1 7.75767 5.38531 19.6322 -0.00422335 0.00670159 0.0181324
286 1 9.79418 1.73787 19.9837 -0.00627642 0.00299244 0.00434637
287 1 9.79798 4.18854 19.8956 0.00461218 -0.00673317 0.00609867
296 1 10.5597 0.607637 19.8783 -0.00033252 0.0120492 0.00100632
297 1 10.5432 2.97544 19.9959 0.00826891 -0.00405387 0.00483852
298 1 10.503 5.42782 19.8459 -0.00416103 0.00608845 0.00420889
311 1 11.9034 0.592385 19.9999 0 0 0
312 1 12.6457 1.82255 19.9999 0 0 0
313 1 11.9038 3.05326 19.9999 0 0 0
314 1 12.6466 4.28301 19.9999 0 0 0
315 1 11.9041 5.51379 19.9999 0 0 0
326 1 14.0439 1.82305 19.9999 0 0 0
327 1 14.0468 4.28589 19.9999 0 0 0
272 1 8.38836 1.72591 19.8535 0.00926349 -0.0018361 0.0207717
274 1 8.39772 4.1332 19.7209 -0.0285049 0.0119729 0.0215293
76 1 -13.0678 6.73987 19.9999 0 0 0
77 1 -13.743 7.99662 19.9999 0 0 0
78 1 -13.076 9.22053 19.9999 0 0 0
79 1 -13.6781 10.6114 19.9999 0 0 0
80 1 -13.0646 11.9529 19.9999 0 0 0
88 1 -11.5395 6.7281 19.9999 0 0 0
89 1 -11.5535 9.18478 19.9999 0 0 0
90 1 -11.7099 11.6077 19.9999 0 0 0
99 1 -10.8117 7.94015 19.9238 -0.0010012 -0.00567326 -0.00371727
100 1 -10.9027 10.4758 19.9999 0 0 0
116 1 -8.70645 6.65608 19.6427 0.00145929 -0.0121558 -0.00742587
117 1 -9.36706 7.95161 19.8783 -0.000937933 0.00418316 0.00124991
118 1 -8.66069 9.17672 19.9177 -0.00408262 0.0210868 0.00245993
119 1 -9.37207 10.4804 19.9999 0 0 0
120 1 -8.62688 11.6228 19.9999 0 0 0
130 1 -7.38724 11.6024 19.9999 0 0 0
129 1 -7.18944 9.09849 19.8788 0.00298926 -0.015023 0.00238245
128 1 -7.24779 6.57538 19.5101 -0.00947662 0.0113634 0.00473035
139 1 -6.50624 7.80587 19.8975 0.0121822 0.0128554 0.0167271
140 1 -6.60892 10.469 19.9999 0 0 0
157 1 -5.08768 7.88366 20.0357 -0.0147151 0.00585972 0.02601
158 1 -4.40341 9.20944 19.972 -0.00741486 0.00097193 0.0145971
159 1 -5.14663 10.4689 19.9999 0 0 0
160 1 -4.36691 11.6023 19.9999 0 0 0
169 1 -3.00833 9.11532 20.0161 -0.00780772 -0.00759742 0.0121484
170 1 -3.12269 11.6018 19.9999 0 0 0
179 1 -2.16193 7.96182 20.1923 0.00327084 -0.0068357 0.00383292
180 1 -2.34103 10.4689 19.9999 0 0 0
197 1 -0.750243 8.04302 20.5413 0.001263 -0.0161934 0.00925243
198 1 -0.0586016 9.25074 20.3202 -0.0139996 -0.00219498 -0.00209077
199 1 -0.876963 10.4688 19.9999 0 0 0
200 1 -0.0953724 11.6018 19.9999 0 0 0
156 1 -4.3379 6.63841 19.9395 -0.00521447 0.00349791 0.0352961
168 1 -2.93954 6.73955 20.2093 -0.000690736 -0.00229524 0.0208291
196 1 -0.0672209 6.82409 20.6192 -0.00190653 -0.00467668 0.00818009
209 1 1.31704 9.20342 20.1138 0.00601574 0.00926406 0.0079936
210 1 1.14924 11.6018 19.9999 0 0 0
219 1 1.99377 7.99378 20.3295 -0.01201 0.0122711 0.00228609
220 1 1.93091 10.4688 19.9999 0 0 0
237 1 3.45388 7.98712 20.273 -0.0137889 0.0036114 0.0155495
238 1 4.10041 9.15049 20.05 -0.0117618 0.00482623 0.0117407
239 1 3.39506 10.4687 19.9999 0 0 0
240 1 4.17656 11.6018 19.9999 0 0 0
249 1 5.51119 9.18191 19.9438 -0.00676658 -0.000819564 0.011572
250 1 5.4212 11.6017 19.9999 0 0 0
259 1 6.2923 7.86493 19.9215 0.00688594 0.0027605 0.0190446
260 1 6.20335 10.4685 19.9999 0 0 0
248 1 5.60102 6.66919 20.2066 -0.00801882 0.0131895 0.0239531
236 1 4.1708 6.72724 20.4267 -0.00496215 -0.00242138 0.0199235
208 1 1.29752 6.85778 20.4214 0.000605843 0.00467133 0.0151591
277 1 7.73764 7.86979 19.7827 -0.00795704 -0.00802161 0.00631854
276 1 8.46869 6.6357 19.7003 0.00493923 -0.00707161 -0.000335553
278 1 8.371 9.1426 19.8986 0.00181439 0.0102775 -0.00326359
279 1 7.66711 10.4687 19.9999 0 0 0
280 1 8.44529 11.6024 19.9999 0 0 0
288 1 9.92091 6.70587 19.9208 -0.000394193 -0.00913007 -0.00301696
289 1 9.80835 9.15946 19.849 -0.00270503 -0.000144658 -0.00427257
290 1 9.6873 11.6101 19.9999 0 0 0
299 1 10.522 7.93873 19.9432 0.00669604 -0.00798932 -0.00954792
300 1 10.4752 10.4755 19.9999 0 0 0
316 1 12.6473 6.74288 19.9999 0 0 0
317 1 11.9051 7.97805 19.9999 0 0 0
318 1 12.6583 9.19198 19.9999 0 0 0
319 1 11.9246 10.4937 19.9999 0 0 0
320 1 12.7709 11.5297 19.9999 0 0 0
328 1 14.0456 6.75188 19.9999 0 0 0
329 1 14.0237 9.17042 19.9999 0 0 0
330 1 13.9415 11.792 19.9999 0 0 0
