ITEM: TIMESTEP
32200
ITEM: NUMBER OF ATOMS
330
ITEM: BOX BOUNDS pp pp pp
-1.4715758017245314e+01 1.5057610017245315e+01
-1.2710055654020760e+01 1.2664508654020761e+01
-5.0001035148846022e+01 1.0000103514884636e+02
ITEM: ATOMS id type x y z vx vy vz
8 1 -1.03552 -1.02479 8.48654 -0.00610056 -0.00164215 -0.0363881
28 1 -1.80393 -2.0181 9.11607 -0.00627294 -0.00239409 -0.0412385
42 1 -3.0638 -0.157642 9.00382 0.00127431 -0.00842313 -0.0489031
44 1 -3.14272 -1.62899 9.37796 0.000816613 -0.00627147 -0.0485903
7 1 0.34113 -1.01848 8.92544 -0.00496882 -0.000130836 -0.0342286
26 1 0.992938 -2.04346 9.7066 0.00236994 0.00030162 -0.0228161
27 1 -1.81109 0.130686 8.44152 -0.00741935 0.00784952 -0.0418451
51 1 -1.147 1.31646 8.69585 -0.0117373 -0.00312834 -0.0365895
32 1 -1.68005 2.27805 9.59219 0.00266758 0.00397388 -0.0358693
25 1 0.912694 0.269996 9.20079 -0.000760688 0.00170586 -0.0313117
49 1 0.256997 1.40684 9.1134 -0.00648293 0.00962425 -0.0331302
52 1 -1.2406 -3.05497 9.97943 0.00476123 0.0116346 -0.0315639
20 1 -3.69065 -1.98375 10.592 -0.00508262 -0.00258429 -0.0507421
36 1 -1.89645 -3.57215 11.1075 0.00307949 0.00329584 -0.0248324
4 1 -4.22049 -1.09125 11.5235 0.00753141 -0.00261047 -0.0413448
60 1 -3.11844 -2.83363 11.3878 -0.00555854 0.00827469 -0.0414604
12 1 -0.883841 -3.89492 12.0691 0.00324115 -0.0152559 -0.0508194
19 1 -4.15692 -1.37638 12.9122 0.00598226 0.00725614 -0.0271064
58 1 -3.40464 -2.66511 12.7972 0.00566125 -0.00218366 -0.0335816
11 1 -1.02255 -3.48511 13.4598 0.00311501 -0.0143109 -0.0423252
34 1 -2.37012 -3.05604 13.7723 0.00630361 -0.00865769 -0.0304945
43 1 -3.95855 -0.455185 13.9933 -0.0138675 0.0047659 -0.0359931
33 1 0.0272358 -2.94234 14.1698 -0.00571027 -0.00242298 -0.0333483
24 1 -2.80196 -0.747723 14.8671 -0.00581386 0.00685148 -0.0419155
48 1 -2.03282 -2.03098 14.7759 -0.00693144 -0.00586592 -0.0334145
46 1 -0.622576 -2.02572 14.8092 -0.00972521 0.00198144 -0.026048
22 1 -0.0673914 -0.721407 14.7166 0.00956138 0.0120492 -0.0375622
38 1 2.00134 -0.146417 10.061 -0.0117053 -0.0110437 -0.0328455
40 1 2.15802 -1.56671 10.3302 -0.00589689 -0.00729926 -0.0339748
50 1 0.199693 -3.01331 10.2551 -0.00845768 0.00392186 -0.0309473
16 1 2.64057 -2.00986 11.6559 -0.00346023 0.00441054 -0.0200655
35 1 0.404715 -3.38464 11.6165 -0.00505348 -0.00109091 -0.036185
2 1 2.8401 -0.960385 12.6469 0.00247593 0.00506744 -0.0248522
59 1 1.54254 -2.83334 12.2411 0.00462509 0.00339002 -0.0231528
15 1 2.13586 -1.44131 13.8598 -0.00259446 -0.010436 -0.0374632
57 1 1.38015 -2.69331 13.6936 0.00319347 -0.00677479 -0.033826
39 1 1.34339 -0.405765 14.4387 -0.0012446 0.00539715 -0.032536
10 1 -0.719164 2.87284 10.4554 0.000577054 0.00181303 -0.033599
18 1 -3.5923 0.75459 9.93855 0.0149396 -0.0100392 -0.0339355
56 1 -2.92844 1.97133 10.2169 0.00568317 -0.00285286 -0.0343276
3 1 -4.09207 0.282557 11.1303 0.00230363 -0.00293821 -0.0407218
54 1 -3.22142 2.4447 11.5854 0.0103359 -0.0014745 -0.0368946
9 1 -0.899533 3.45135 11.7954 -0.00549274 -0.00670849 -0.0349872
17 1 -3.94496 1.25344 12.0663 -0.00543705 0.0111957 -0.0308547
30 1 -2.16497 3.03643 12.3905 0.00510326 -0.00246596 -0.0381388
47 1 -1.90723 2.72152 13.7314 -0.0065176 -0.00501395 -0.016428
41 1 -3.62458 0.886518 13.4473 -0.0307925 -0.00195791 -0.0209826
45 1 -0.479975 2.72726 13.8379 0.00105398 -0.0140506 -0.0243701
23 1 -2.70506 1.6323 14.2021 0.00638464 0.00774633 -0.026743
6 1 -2.15819 0.482901 14.9685 0.00632432 -0.00145114 -0.0303268
5 1 -0.737362 0.50708 14.6831 -0.00509379 -0.00847753 -0.0409703
21 1 0.0797943 1.56146 14.3197 -0.00302003 0.00157185 -0.0334017
31 1 0.477269 2.17745 10.1575 -0.0149733 -0.000911321 -0.023801
14 1 2.44275 0.851948 11.0518 -0.0141453 0.00258809 -0.0279827
55 1 1.5407 1.99805 11.0937 -0.00621551 -0.00644921 -0.0198297
1 1 2.93811 0.481364 12.3829 -0.00217867 -0.00432012 -0.0305061
53 1 1.51419 2.64474 12.4424 0.00863904 -0.00591145 -0.0321453
29 1 0.214138 3.25773 12.693 -0.00562599 0.00867898 -0.0370115
13 1 2.19416 1.58434 13.1581 0.0115522 0.0150428 -0.0354079
37 1 1.28611 0.895026 13.9849 0.00946205 0.00592662 -0.0226561
61 1 -13.6674 -11.9461 19.9999 0 0 0
62 1 -13.1228 -10.6724 19.9999 0 0 0
63 1 -13.7825 -9.34696 19.9999 0 0 0
64 1 -13.0772 -8.00396 19.9999 0 0 0
65 1 -13.7542 -6.79742 19.9999 0 0 0
81 1 -11.507 -10.5408 19.9999 0 0 0
82 1 -11.5331 -8.01671 19.9999 0 0 0
91 1 -10.7591 -11.6424 19.9999 0 0 0
92 1 -10.8703 -9.25833 20.2946 -0.0138281 -0.00732116 0.00259688
93 1 -10.8242 -6.78245 20.0338 -0.00615848 0.0027265 -0.0135264
101 1 -9.52473 -11.6468 19.9999 0 0 0
102 1 -8.74136 -10.5124 19.9999 0 0 0
103 1 -9.36493 -9.17568 20.3398 -0.00529864 -0.00907765 -0.0128942
104 1 -8.55913 -8.05514 20.4505 -0.00362879 0.00406466 -0.00820681
105 1 -9.25949 -6.81572 20.1474 -0.00354285 -0.00598799 -0.0115319
121 1 -7.27873 -10.5146 19.9999 0 0 0
122 1 -7.01214 -7.96587 20.4169 -0.00974769 0.0150449 -0.00882439
131 1 -6.50232 -11.6488 19.9999 0 0 0
132 1 -6.48166 -9.17116 20.136 -0.00536116 0.00922475 -0.00934918
141 1 -5.25854 -11.6473 19.9999 0 0 0
142 1 -4.47674 -10.5145 19.9999 0 0 0
143 1 -5.0804 -9.25211 20.0646 -0.00802057 0.00404874 -0.0208513
144 1 -4.19784 -8.10925 19.8591 -0.00523444 -0.00283339 -0.00437715
161 1 -3.01281 -10.5144 19.9999 0 0 0
162 1 -2.84971 -7.92527 19.4769 -0.00304629 0.00268745 0.000306008
171 1 -2.23133 -11.6474 19.9999 0 0 0
172 1 -2.27905 -9.25367 19.5669 -0.0116745 -0.0102626 0.00739402
181 1 -0.986751 -11.6474 19.9999 0 0 0
182 1 -0.205108 -10.5143 19.9999 0 0 0
183 1 -0.852434 -9.1375 19.618 0.000942262 -0.0153792 0.000413741
184 1 0.0146863 -7.93104 19.318 0.00430165 -0.0045464 -0.00908278
133 1 -6.19643 -6.72927 20.461 0.00202722 0.00274305 0.000605866
145 1 -4.7623 -6.78065 20.1882 0.00647709 0.0121654 -0.0217607
173 1 -2.05722 -6.7103 19.2887 0.00246256 0.00987684 -0.00631825
185 1 -0.620309 -6.71286 19.1279 -1.86455e-05 0.00701797 0.0100656
201 1 1.25901 -10.5143 19.9999 0 0 0
202 1 1.45673 -7.9844 19.5524 -0.00061058 -0.00265665 -0.00692713
211 1 2.0406 -11.6474 19.9999 0 0 0
212 1 2.063 -9.22433 19.7968 0.00551829 -0.011466 -0.00189872
221 1 3.28523 -11.6473 19.9999 0 0 0
222 1 4.06705 -10.5143 19.9999 0 0 0
223 1 3.49558 -9.16833 19.7525 -0.00348629 -0.00714984 0.00125755
224 1 4.33346 -8.00716 19.5803 -0.00633429 -0.00557327 0.00596082
241 1 5.53108 -10.5143 19.9999 0 0 0
242 1 5.76016 -8.00735 19.7102 0.00909886 0.00425806 0.00539354
251 1 6.31174 -11.6474 19.9999 0 0 0
252 1 6.2623 -9.25462 19.9549 -0.00904293 0.000349764 -0.0085929
261 1 7.55524 -11.6498 19.9999 0 0 0
253 1 6.31656 -6.74551 19.601 -0.00138106 -0.00885009 -0.00770406
225 1 3.6341 -6.80713 19.224 0.000692251 -0.00637258 -0.00986366
213 1 2.18691 -6.79017 19.1904 0.012366 -0.00150139 -0.0111225
263 1 7.69794 -9.2816 19.908 0.00197898 -0.0059898 -0.0136408
265 1 7.70723 -6.82631 19.7523 0.00280104 -0.00385193 -0.00208275
262 1 8.33779 -10.5154 19.9999 0 0 0
264 1 8.45643 -8.10154 19.8708 0.0108168 0.00403544 -0.0158214
281 1 9.79556 -10.5245 19.9999 0 0 0
282 1 9.84649 -8.09595 20.0908 0.0020385 0.0063883 -0.00252486
291 1 10.5816 -11.6418 19.9999 0 0 0
292 1 10.5568 -9.29626 20.1226 0.0104988 -0.00539068 0.00751172
293 1 10.5127 -6.87479 19.799 -0.00550021 -0.000522416 -0.00380304
301 1 11.8019 -11.7522 19.9999 0 0 0
302 1 12.7161 -10.5156 19.9999 0 0 0
303 1 11.8934 -9.22642 19.9999 0 0 0
304 1 12.655 -8.00627 19.9999 0 0 0
305 1 11.8992 -6.77596 19.9999 0 0 0
321 1 14.087 -10.4984 19.9999 0 0 0
322 1 14.0714 -8.01298 19.9999 0 0 0
66 1 -13.0658 -5.54976 19.9999 0 0 0
67 1 -13.7179 -4.30197 19.9999 0 0 0
68 1 -13.0406 -3.0891 19.9999 0 0 0
69 1 -13.6883 -1.86008 19.9999 0 0 0
70 1 -13.0424 -0.636745 19.9999 0 0 0
83 1 -11.5387 -5.54743 19.9999 0 0 0
84 1 -11.5566 -3.09089 19.9999 0 0 0
85 1 -11.5625 -0.637245 19.9999 0 0 0
94 1 -10.7399 -4.30096 19.9074 -0.000430276 0.0124139 0.0237689
95 1 -10.7635 -1.88078 19.9737 -0.00227962 0.00430122 -0.00430298
106 1 -8.49213 -5.58682 19.9625 -0.000441839 -0.00144559 0.00447456
107 1 -9.2681 -4.3276 19.8594 -0.0012974 0.00718111 0.0294006
108 1 -8.54656 -3.06767 19.7013 0.00991036 0.00346775 0.0352154
109 1 -9.30074 -1.90676 19.9495 0.00493822 0.00719548 0.00786717
110 1 -8.49681 -0.627954 19.8961 -0.00286628 -0.00414569 -0.00765597
124 1 -7.08275 -3.20595 19.3708 0.0033744 -0.00129876 0.0149991
123 1 -6.97167 -5.54533 20.0581 -0.0042316 -0.00261798 0.0117161
125 1 -7.05862 -0.603475 19.4055 -0.00168951 -0.0036116 0.00998716
186 1 0.147149 -5.58846 18.5196 -0.0075117 0.00528473 0.0139156
134 1 -6.29612 -4.35313 19.6397 0.00294649 0.000214404 0.00570727
135 1 -6.3461 -1.91484 19.121 -0.0026327 -0.00993701 0.00980731
146 1 -4.10013 -5.60381 19.5215 0.00809149 0.00567147 -0.0278263
147 1 -4.79304 -4.3479 19.3643 -0.00127682 0.0075917 -0.00474613
163 1 -2.69121 -5.45818 18.98 -0.00341824 0.00540416 -0.01265
148 1 -4.15793 -3.16127 18.8401 0.000965314 0.00769997 0.00742128
149 1 -4.93026 -1.90526 18.6939 -0.00418453 0.00927283 0.010034
174 1 -1.87159 -4.37989 18.3862 0.00419046 -0.00437903 -0.0119706
164 1 -2.69831 -3.17035 18.3537 -0.00712165 0.000860091 -0.00938858
187 1 -0.456445 -4.35551 18.1023 0.00418858 0.00471139 -0.00500183
150 1 -4.27056 -0.598717 18.225 0.00741544 -0.00883485 0.00784193
175 1 -2.05176 -1.98625 17.8341 3.2186e-05 0.00913072 -0.0321539
165 1 -2.85236 -0.658874 17.8755 0.00566292 -0.00920818 -0.0322694
189 1 -0.598382 -1.86914 17.5386 -0.00595582 0.0148929 -0.0307513
188 1 0.215052 -3.11849 17.4931 0.00665052 0.00476007 -0.0130484
190 1 0.179447 -0.649926 17.2717 -0.00599575 -0.0126879 -0.0399525
243 1 5.69718 -5.6225 18.976 0.00106343 0.000364168 -0.0174996
203 1 1.5591 -5.65838 18.5528 0.00267357 -0.00757316 -0.00440294
254 1 6.35164 -4.46474 18.6256 -0.0121993 0.00161481 0.00322907
226 1 4.26881 -5.61974 18.7819 -0.0111556 -0.0112596 -0.0062787
227 1 3.6708 -4.48897 18.1079 0.000251905 0.0114291 -0.017993
244 1 5.87712 -3.16404 18.271 -0.00141418 -0.00246984 0.00714951
214 1 2.20064 -4.44842 18.0615 -0.00653942 0.00596577 -0.0139399
255 1 6.65559 -1.9388 18.4826 -0.00047839 0.000696129 0.00760431
228 1 4.45986 -3.24757 17.9051 0.00433185 0.00337296 -0.0179574
245 1 6.01733 -0.648994 18.0592 -0.000108139 0.0125437 0.00305191
229 1 3.76159 -1.98942 17.6364 -0.00884539 0.00852105 -0.013529
230 1 4.568 -0.660593 17.7895 -0.0164051 0.00543386 -0.00315712
204 1 1.67083 -3.19638 17.5092 -0.0136969 0.00341453 -0.00922238
215 1 2.36887 -1.95675 17.2751 0.00813099 0.0198406 -0.0281264
205 1 1.63546 -0.683185 17.1524 -0.00310924 -0.0078148 -0.031175
267 1 7.76515 -4.45784 19.0758 -0.0090488 0.0109957 0.0106021
269 1 7.95511 -1.9707 19.0766 0.00273921 0.0177413 0.0150901
283 1 9.77779 -5.60359 19.7713 -2.14036e-05 0.00996841 0.0147839
284 1 9.81848 -3.13872 19.6833 -0.0150087 -0.0127221 0.00999853
285 1 9.84571 -0.609889 19.6536 0.0128016 0.00231366 0.00691582
294 1 10.4864 -4.40296 19.8927 0.00293 0.00517535 3.62377e-06
295 1 10.4885 -1.86929 19.9211 0.00373611 -0.00720135 0.00379763
306 1 12.6496 -5.55341 19.9999 0 0 0
307 1 11.9041 -4.32686 19.9999 0 0 0
308 1 12.647 -3.09734 19.9999 0 0 0
309 1 11.9037 -1.86828 19.9999 0 0 0
310 1 12.6457 -0.637745 19.9999 0 0 0
323 1 14.0539 -5.56516 19.9999 0 0 0
324 1 14.0472 -3.10129 19.9999 0 0 0
325 1 14.0438 -0.638188 19.9999 0 0 0
268 1 8.48439 -3.31811 19.2577 0.00652548 0.0181882 0.022726
270 1 8.54868 -0.660584 19.231 -0.00915875 0.00280314 0.0102537
266 1 8.37441 -5.64266 19.5588 0.00629081 0.00339301 0.0128169
71 1 -13.6826 0.591886 19.9999 0 0 0
72 1 -13.0424 1.82079 19.9999 0 0 0
73 1 -13.6895 3.04359 19.9999 0 0 0
74 1 -13.0413 4.27397 19.9999 0 0 0
75 1 -13.7195 5.48914 19.9999 0 0 0
86 1 -11.5623 1.82169 19.9999 0 0 0
87 1 -11.5564 4.27485 19.9999 0 0 0
96 1 -10.8145 0.623639 19.9627 0.0030827 -0.00402602 0.00707253
97 1 -10.7324 3.08019 19.8946 -0.00503345 0.00062086 0.0154724
98 1 -10.737 5.52974 19.9407 0.00442249 -0.000872078 0.000956057
111 1 -9.23613 0.605785 19.7753 -0.00485826 0.000702696 -0.00321094
112 1 -8.48127 1.86216 19.8306 -0.00582689 0.00156516 0.00760014
113 1 -9.21305 3.13047 19.8864 -0.000119517 0.00797203 0.017231
114 1 -8.51882 4.32158 19.7754 -0.00391184 -0.00234855 0.0165199
115 1 -9.2833 5.63231 19.8508 -0.0115896 -0.00574994 -0.00389376
127 1 -7.06871 4.32936 19.6599 0.00314566 0.017691 0.0258852
126 1 -7.0408 1.81189 19.5524 0.00709222 -0.000346263 0.0214284
138 1 -6.17903 5.45545 20.0208 0.00347799 0.00108447 0.00436659
136 1 -6.32144 0.58415 18.9766 -0.00379291 -0.00052899 0.0021878
178 1 -1.97551 5.46442 18.7792 0.00560631 0.00509078 -0.0021741
195 1 -0.593509 5.61703 18.3708 -0.00862017 0.00193312 0.00414557
155 1 -4.74285 5.40305 19.7185 -0.0157077 -0.0014531 -0.00648773
137 1 -6.30555 3.05595 19.4901 -0.00020062 0.00157599 0.0146762
153 1 -4.86596 3.12897 18.907 0.01044 0.00278155 0.00380553
154 1 -3.97225 4.30532 19.097 0.00242398 -0.00160463 -0.00297835
167 1 -2.59435 4.25428 18.5109 0.00660479 -0.00848305 -0.00879725
152 1 -4.28289 1.94586 18.3556 0.00201308 -0.0123795 -0.00526493
151 1 -5.00001 0.645497 18.4522 0.0162326 -0.0109336 0.00302307
194 1 0.0629594 4.33677 17.8699 0.00341475 -0.00855578 -0.00584447
177 1 -2.06474 3.04684 17.8076 -0.00566522 -0.00624782 -0.0147455
166 1 -2.84204 1.82889 17.8859 -0.00412379 0.00725583 -0.0191964
193 1 -0.604706 3.08737 17.5779 0.00485124 -0.00222995 -0.0212807
176 1 -2.07722 0.612483 17.7631 -0.0113344 -0.00355097 -0.0361814
191 1 -0.605583 0.624879 17.3831 -0.000775221 -0.00555533 -0.0393855
192 1 0.212725 1.83109 17.2611 -0.00340671 0.00364778 -0.0289432
258 1 6.35381 5.60939 19.1334 0.000397746 -0.0110443 -0.0054851
235 1 3.6564 5.64007 18.4837 -0.0223367 0.00593636 -0.0222108
218 1 2.19905 5.58853 18.4698 0.00296675 0.00879372 -0.011179
257 1 6.47969 3.16468 18.5757 -0.00223054 -0.00593563 0.0205947
247 1 5.79554 4.39994 18.5323 0.00557332 -0.00120127 0.00170845
234 1 4.42922 4.42269 18.0871 -0.00394256 -0.00235819 -0.0137775
207 1 1.55964 4.41627 17.8525 -0.00643302 -0.00198856 0.0029297
246 1 5.89465 1.96723 18.0575 0.000862771 -0.0114228 -0.00324826
233 1 3.78303 3.20904 17.7082 -0.0133744 -0.00796697 -0.0144095
232 1 4.49783 1.93072 17.6241 0.0030678 -0.00307924 -0.00326357
256 1 6.56295 0.716599 18.3835 0.00453018 -0.00980251 -0.00224949
217 1 2.33331 3.25626 17.4686 0.00483119 -0.00657346 -0.0142122
231 1 3.81768 0.664994 17.491 -0.0139072 0.0039113 -0.0104003
206 1 1.6786 1.9783 17.1993 0.0118656 -0.0130934 -0.0278586
216 1 2.38838 0.649031 17.1223 0.00578377 -0.0151036 -0.0254887
275 1 7.78019 5.62732 19.5144 0.000721261 -0.00942131 0.00166002
271 1 7.84352 0.595689 18.992 -0.0066592 -0.00438081 0.0118272
273 1 7.76432 3.1317 19.261 -0.00367848 -0.00261087 0.0215748
286 1 9.82391 1.90507 19.6711 0.0127627 0.00673699 0.00412263
287 1 9.83256 4.35808 19.6799 0.00341333 -0.00379926 0.0120965
296 1 10.546 0.662484 19.8858 0.00196361 0.0094163 -0.00447499
297 1 10.4987 3.0929 19.8024 -0.00515008 0.000552316 0.0178815
298 1 10.572 5.56055 19.8981 -0.00742436 -0.00677263 0.0054155
311 1 11.9034 0.592385 19.9999 0 0 0
312 1 12.6457 1.82255 19.9999 0 0 0
313 1 11.9038 3.05326 19.9999 0 0 0
314 1 12.6466 4.28301 19.9999 0 0 0
315 1 11.9041 5.51379 19.9999 0 0 0
326 1 14.0439 1.82305 19.9999 0 0 0
327 1 14.0468 4.28589 19.9999 0 0 0
272 1 8.44608 1.89643 19.3183 0.000330786 -0.00672948 0.00790886
274 1 8.44419 4.42445 19.4917 -0.0023523 -0.00972809 0.0152204
76 1 -13.0678 6.73987 19.9999 0 0 0
77 1 -13.743 7.99662 19.9999 0 0 0
78 1 -13.076 9.22053 19.9999 0 0 0
79 1 -13.6781 10.6114 19.9999 0 0 0
80 1 -13.0646 11.9529 19.9999 0 0 0
88 1 -11.5395 6.7281 19.9999 0 0 0
89 1 -11.5535 9.18478 19.9999 0 0 0
90 1 -11.7099 11.6077 19.9999 0 0 0
99 1 -10.9385 7.92676 20.3955 0.0156477 -0.00709433 -0.00754245
100 1 -10.9027 10.4758 19.9999 0 0 0
116 1 -8.58525 6.78823 20.3029 -0.00566733 0.00578554 -0.00353822
117 1 -9.39742 7.97953 20.4199 -6.27312e-05 -0.0115141 -0.0197886
118 1 -8.67123 9.18835 20.3274 0.01563 -0.006498 -0.00276093
119 1 -9.37207 10.4804 19.9999 0 0 0
120 1 -8.62688 11.6228 19.9999 0 0 0
130 1 -7.38724 11.6024 19.9999 0 0 0
128 1 -7.02387 6.63433 20.3877 -0.00100825 0.00680652 -0.00351362
129 1 -7.21266 9.15437 20.299 0.0147047 -0.00833896 -0.0140755
139 1 -6.39406 7.96262 20.3517 -0.00722299 0.000934425 -0.0134856
140 1 -6.60892 10.469 19.9999 0 0 0
157 1 -4.92096 7.92872 20.0662 -0.00928903 -0.0022963 -0.0154376
158 1 -4.41641 9.20611 19.5837 -0.000228913 0.00083724 -0.0114969
159 1 -5.14663 10.4689 19.9999 0 0 0
160 1 -4.36691 11.6023 19.9999 0 0 0
169 1 -2.94282 9.20722 19.4623 -0.0119997 -0.0065013 -0.0115794
170 1 -3.12269 11.6018 19.9999 0 0 0
179 1 -2.15525 7.94397 19.3777 -0.0131697 -0.0141719 0.00571227
180 1 -2.34103 10.4689 19.9999 0 0 0
197 1 -0.687833 7.9707 19.3424 -0.00890594 -0.00856946 0.00594949
198 1 -0.058575 9.18091 19.708 0.00340198 -0.00301481 -0.0207939
199 1 -0.876963 10.4688 19.9999 0 0 0
200 1 -0.0953724 11.6018 19.9999 0 0 0
156 1 -4.13531 6.6998 19.8371 0.00961686 -0.00524639 -0.0145236
168 1 -2.77746 6.667 19.2782 0.00612235 -0.00768638 -0.0172867
196 1 0.0727392 6.83216 18.7837 -0.0037253 0.000398462 0.00577696
209 1 1.32904 9.20487 19.5388 -0.00120326 -0.00460978 -0.000151155
210 1 1.14924 11.6018 19.9999 0 0 0
219 1 2.12434 8.04635 19.2961 -0.00448415 0.0049189 -0.00942696
220 1 1.93091 10.4688 19.9999 0 0 0
237 1 3.60543 7.95118 19.4743 0.000377096 0.00594846 0.00659329
238 1 4.22368 9.24065 19.7206 -0.00119668 0.00520054 0.00239767
239 1 3.39506 10.4687 19.9999 0 0 0
240 1 4.17656 11.6018 19.9999 0 0 0
249 1 5.65232 9.18094 19.7167 -0.00261534 0.00208921 -0.00416584
250 1 5.4212 11.6017 19.9999 0 0 0
259 1 6.46504 8.05561 19.7694 0.00163398 0.0028929 -0.0194835
260 1 6.20335 10.4685 19.9999 0 0 0
248 1 5.71825 6.82624 19.4746 0.0120066 -0.00586466 -0.0154677
236 1 4.27529 6.69947 19.2669 -0.0177379 -0.00939023 -0.0128048
208 1 1.50741 6.84655 18.8916 0.00329489 -0.00902334 0.00105397
277 1 7.80253 8.06978 19.9945 -0.0029735 -0.00732776 -0.012565
276 1 8.49289 6.84833 19.7196 0.0015982 0.0041255 0.00491256
278 1 8.49067 9.32374 20.0909 0.00289627 0.00139551 -0.00921943
279 1 7.66711 10.4687 19.9999 0 0 0
280 1 8.44529 11.6024 19.9999 0 0 0
288 1 9.82642 6.79396 19.9222 0.00328491 -0.000634796 0.0188813
289 1 9.83917 9.16894 20.0529 -0.0148024 -0.00531572 -0.00327885
290 1 9.6873 11.6101 19.9999 0 0 0
299 1 10.5293 8.01257 20.1143 0.00162612 0.00993747 0.00533622
300 1 10.4752 10.4755 19.9999 0 0 0
316 1 12.6473 6.74288 19.9999 0 0 0
317 1 11.9051 7.97805 19.9999 0 0 0
318 1 12.6583 9.19198 19.9999 0 0 0
319 1 11.9246 10.4937 19.9999 0 0 0
320 1 12.7709 11.5297 19.9999 0 0 0
328 1 14.0456 6.75188 19.9999 0 0 0
329 1 14.0237 9.17042 19.9999 0 0 0
330 1 13.9415 11.792 19.9999 0 0 0
