ITEM: TIMESTEP
39500
ITEM: NUMBER OF ATOMS
330
ITEM: BOX BOUNDS pp pp pp
-1.4715758017245314e+01 1.5057610017245315e+01
-1.2710055654020760e+01 1.2664508654020761e+01
-5.0001035148846022e+01 1.0000103514884636e+02
ITEM: ATOMS id type x y z vx vy vz
8 1 -0.984612 -0.977507 3.36725 0.00163027 0.00209206 -0.0223727
27 1 -1.75208 0.270887 3.33376 -0.00426004 -0.000943174 -0.0347699
28 1 -1.80332 -2.06709 3.8608 0.00345733 -0.00372968 -0.0429282
42 1 -2.99233 -0.109698 3.85607 -0.00268347 -0.00650802 -0.0289849
44 1 -3.11085 -1.51545 4.16547 -0.00208132 0.00568471 -0.0233702
52 1 -1.20391 -3.01777 4.87448 -0.00741 0.00317789 -0.0397153
20 1 -3.6511 -1.92705 5.48168 0.00795044 0.00380334 -0.0248346
36 1 -1.90547 -3.52215 6.04507 0.0148077 -0.00640031 -0.0377989
4 1 -4.37316 -1.09537 6.38423 -0.0138725 -0.00752077 -0.0410108
60 1 -3.22354 -3.04064 6.3071 0.00155091 -0.00779811 -0.0309881
12 1 -0.99489 -3.791 7.15294 -0.00123343 0.00153508 -0.0441011
19 1 -4.29597 -1.54657 7.72177 -0.013075 -0.00976886 -0.0304406
58 1 -3.64818 -2.83064 7.68543 0.00146442 -0.00347861 -0.0464444
11 1 -1.3771 -3.91999 8.50323 0.00720293 -0.0001172 -0.0349765
34 1 -2.73098 -3.25756 8.62249 -0.00145648 0.00105138 -0.0454239
43 1 -4.33627 -0.626627 8.82956 0.0013444 -0.00231703 -0.0366742
33 1 -0.298622 -3.19379 9.13045 -0.00357277 -0.00679186 -0.0222752
50 1 0.17556 -3.00725 5.22255 -0.00864249 0.00734332 -0.0338894
7 1 0.360795 -0.9631 3.8988 -0.00771385 -0.00199636 -0.0260423
26 1 0.984128 -1.99589 4.6547 -0.00672613 -0.00703288 -0.0321602
38 1 1.89088 0.0370003 5.30629 -5.09817e-06 0.0110018 -0.0260843
40 1 1.9251 -1.40588 5.5068 -0.0144029 0.00243541 -0.0318395
16 1 2.17656 -1.86338 6.86522 -0.00913476 -0.00402738 -0.0287966
35 1 0.329235 -3.49112 6.57134 -0.00504444 -0.000918786 -0.0313889
59 1 1.40896 -3.07611 7.4024 0.00578831 -0.00650037 -0.0372435
2 1 2.48436 -0.976182 7.93634 0.00103849 0.000382402 -0.0161245
15 1 1.61642 -1.4798 8.9963 0.00734399 0.00390172 -0.0279536
57 1 1.07801 -2.78848 8.77288 -0.00440459 0.00546163 -0.0273849
39 1 0.883344 -0.499183 9.6254 0.00234155 -0.00128877 -0.0302704
51 1 -1.1233 1.42628 3.94316 -0.0153056 0.00472079 -0.0375424
32 1 -1.77695 2.38548 4.69301 0.0135759 -0.0111116 -0.0292037
10 1 -0.795829 2.94543 5.58259 -0.00827516 -0.0158378 -0.0321274
18 1 -3.6063 0.730237 4.85644 -0.000915063 0.00520395 -0.0354121
56 1 -2.95242 1.94271 5.38663 0.00135542 0.000147846 -0.0312333
3 1 -4.11345 0.307045 6.13911 -0.00120973 0.0110971 -0.0448118
54 1 -3.23455 2.05903 6.75067 -0.00470899 0.00897325 -0.037648
9 1 -1.17172 3.21614 6.9868 -0.0133764 -0.0120916 -0.011039
17 1 -4.24057 1.22509 7.29681 -0.0129288 -0.0047603 -0.0375805
30 1 -2.37664 2.88334 7.47445 -0.00236276 0.00708472 -0.033058
29 1 -0.149611 2.98241 7.98777 0.00508029 -0.00339054 -0.0257601
47 1 -2.33988 2.42916 8.88997 0.00930053 -0.00268662 -0.041181
41 1 -4.32712 0.825001 8.68237 -0.00497655 0.0147197 -0.0466037
45 1 -0.863649 2.38464 9.11414 -0.0109033 -0.00521708 -0.040777
23 1 -3.17936 1.47486 9.4282 0.0111136 0.00521194 -0.0359187
25 1 0.865927 0.257607 4.35367 -0.0115591 0.00627775 -0.0195703
49 1 0.174922 1.38341 4.29963 0.00283133 -0.00536296 -0.0280177
31 1 0.487703 2.36189 5.296 0.0196035 0.0172654 -0.0271814
14 1 2.31818 0.870277 6.3063 -0.0134685 -0.0037449 -0.03518
55 1 1.41257 1.96655 6.28728 0.0149983 -0.00318878 -0.0440046
1 1 2.56781 0.394757 7.57479 -0.00626053 0.00516698 -0.0297319
53 1 1.22007 2.3056 7.67552 0.000551863 -0.00309955 -0.0305965
13 1 1.9396 1.3593 8.51926 0.00381546 0.000249898 -0.038994
37 1 1.04144 0.93663 9.6009 -0.00324744 -0.00357441 -0.0414139
24 1 -3.26097 -0.98111 9.74386 -0.00290383 -0.00632751 -0.0329923
48 1 -2.51698 -2.16288 9.60003 -0.000152111 0.000752128 -0.0430575
46 1 -1.08211 -2.18494 9.78085 0.010726 -0.00675799 -0.0449815
22 1 -0.483682 -0.87884 9.96862 0.00468721 -0.0014188 -0.0353425
6 1 -2.61275 0.28413 10.0074 -0.00387131 -0.0052662 -0.0462623
5 1 -1.22136 0.207428 9.90542 -0.0153705 0.00277278 -0.0386981
21 1 -0.372372 1.24494 9.75356 -0.00236528 0.00126942 -0.0278921
61 1 -13.6674 -11.9461 19.9999 0 0 0
62 1 -13.1228 -10.6724 19.9999 0 0 0
63 1 -13.7825 -9.34696 19.9999 0 0 0
64 1 -13.0772 -8.00396 19.9999 0 0 0
65 1 -13.7542 -6.79742 19.9999 0 0 0
81 1 -11.507 -10.5408 19.9999 0 0 0
82 1 -11.5331 -8.01671 19.9999 0 0 0
91 1 -10.7591 -11.6424 19.9999 0 0 0
92 1 -10.7786 -9.21615 20.0316 0.00994475 0.00192982 -0.00895007
93 1 -10.8245 -6.76351 19.7567 0.00184243 -0.00137139 0.0247837
101 1 -9.52473 -11.6468 19.9999 0 0 0
102 1 -8.74136 -10.5124 19.9999 0 0 0
103 1 -9.39597 -9.20496 19.8227 -0.00213434 0.000759915 -0.0150206
104 1 -8.74653 -7.94016 19.5805 0.00477132 0.0113909 -0.00658458
105 1 -9.45892 -6.63389 19.3589 0.0097635 0.00897027 0.0118594
121 1 -7.27873 -10.5146 19.9999 0 0 0
122 1 -7.29801 -7.89579 19.6466 -0.00970119 -0.00376614 0.000918425
131 1 -6.50232 -11.6488 19.9999 0 0 0
132 1 -6.55507 -9.07973 19.8698 0.0113757 0.00654423 0.00334384
141 1 -5.25854 -11.6473 19.9999 0 0 0
142 1 -4.47674 -10.5145 19.9999 0 0 0
143 1 -5.20394 -9.1777 19.6978 0.0041001 -0.001854 0.023527
144 1 -4.59414 -7.98681 19.0144 -0.00305712 0.0128327 0.00316433
161 1 -3.01281 -10.5144 19.9999 0 0 0
162 1 -3.10608 -8.12063 18.7309 -0.0148139 0.0104127 0.0048119
171 1 -2.23133 -11.6474 19.9999 0 0 0
172 1 -2.3835 -9.2396 19.5519 -0.00328579 -0.0158204 -0.00627432
181 1 -0.986751 -11.6474 19.9999 0 0 0
182 1 -0.205108 -10.5143 19.9999 0 0 0
183 1 -0.985267 -9.3073 19.4615 0.00331463 -0.00533618 -0.00345636
184 1 -0.203242 -8.272 18.7029 0.00315239 -0.0018303 0.00086844
133 1 -6.77722 -6.67325 19.0031 -0.0164721 0.00385852 -0.00370066
145 1 -5.33533 -6.74402 18.8069 -0.00320354 0.00163013 -0.019451
173 1 -2.45209 -6.97296 18.0823 0.000592681 -0.00274169 -0.00599877
185 1 -1.02225 -7.11772 18.219 -0.000100156 -0.00233639 -0.00465903
201 1 1.25901 -10.5143 19.9999 0 0 0
202 1 1.24081 -8.23727 18.6965 0.00540939 -0.00339749 0.0228519
211 1 2.0406 -11.6474 19.9999 0 0 0
212 1 1.93217 -9.18759 19.4984 0.00911475 0.0035777 0.00237745
221 1 3.28523 -11.6473 19.9999 0 0 0
222 1 4.06705 -10.5143 19.9999 0 0 0
223 1 3.36644 -9.14272 19.7281 0.00367704 -0.0121325 -0.00108479
224 1 4.04096 -7.96637 19.4243 0.00685696 0.00631343 0.00738206
241 1 5.53108 -10.5143 19.9999 0 0 0
242 1 5.48874 -7.85254 19.5953 -0.0039098 0.00131516 0.00300211
251 1 6.31174 -11.6474 19.9999 0 0 0
252 1 6.24227 -9.12254 19.8371 -0.00267593 0.00957414 0.0147866
261 1 7.55524 -11.6498 19.9999 0 0 0
253 1 6.32074 -6.68778 19.1007 -0.00269511 0.000429231 0.000948448
225 1 3.32089 -6.72545 18.863 0.00605091 -6.55971e-06 0.00917874
213 1 1.9438 -6.89497 18.4416 0.00445037 -0.0038344 0.0110236
265 1 7.74748 -6.66198 19.3131 -0.000689746 -0.00512426 0.000971683
263 1 7.63468 -9.10248 19.8561 -0.00299186 -0.00417683 0.00414202
262 1 8.33779 -10.5154 19.9999 0 0 0
264 1 8.4506 -7.91171 19.6665 -0.00188235 -0.00872551 -0.00868885
281 1 9.79556 -10.5245 19.9999 0 0 0
282 1 9.91162 -8.00553 19.6758 0.00366274 0.00525274 -0.00247484
291 1 10.5816 -11.6418 19.9999 0 0 0
292 1 10.5326 -9.20013 20.0638 0.0125712 0.000465952 0.00273428
293 1 10.4865 -6.7189 19.8416 -0.0026161 0.00750926 -0.0104767
301 1 11.8019 -11.7522 19.9999 0 0 0
302 1 12.7161 -10.5156 19.9999 0 0 0
303 1 11.8934 -9.22642 19.9999 0 0 0
304 1 12.655 -8.00627 19.9999 0 0 0
305 1 11.8992 -6.77596 19.9999 0 0 0
321 1 14.087 -10.4984 19.9999 0 0 0
322 1 14.0714 -8.01298 19.9999 0 0 0
66 1 -13.0658 -5.54976 19.9999 0 0 0
67 1 -13.7179 -4.30197 19.9999 0 0 0
68 1 -13.0406 -3.0891 19.9999 0 0 0
69 1 -13.6883 -1.86008 19.9999 0 0 0
70 1 -13.0424 -0.636745 19.9999 0 0 0
83 1 -11.5387 -5.54743 19.9999 0 0 0
84 1 -11.5566 -3.09089 19.9999 0 0 0
85 1 -11.5625 -0.637245 19.9999 0 0 0
94 1 -10.8864 -4.33222 19.8602 -0.00174138 0.00941197 -0.00737728
95 1 -10.7814 -1.84666 19.8407 -0.00635455 0.0103043 -0.00646151
106 1 -8.86538 -5.38243 18.9585 -0.00318944 0.00532333 0.00217654
107 1 -9.55859 -4.21252 19.1833 -0.0170127 0.00148938 -0.00772883
108 1 -8.80482 -3.10953 19.0036 0.00857221 -0.00983202 -0.0160165
109 1 -9.41058 -1.90531 19.4982 -0.0105298 0.00280377 -0.0155775
110 1 -8.70599 -0.671062 19.4594 0.000523814 -0.00986678 -0.023341
123 1 -7.43222 -5.42606 18.7155 0.000429679 0.0129273 -0.00768959
124 1 -7.42919 -3.03761 18.6421 -0.00824643 -0.000510189 0.00563263
125 1 -7.38136 -0.632863 18.9837 -0.0133099 0.00870927 -0.0214123
186 1 -0.379256 -5.78068 18.0554 0.00345978 0.00530037 0.00168522
134 1 -6.70883 -4.23158 18.4474 -0.00512536 0.00579281 -0.00766325
135 1 -6.73603 -1.78202 18.6173 0.0145384 0.00022032 -0.0105741
146 1 -4.60765 -5.58791 18.3429 0.00319638 0.0148649 -0.00331306
147 1 -5.28422 -4.38153 18.3259 0.0110217 0.00118327 -0.015528
163 1 -3.15473 -5.65371 18.2086 0.00731199 0.00875633 0.00254198
148 1 -4.56843 -3.08898 18.3839 0.00340317 0.00476261 -0.00610607
149 1 -5.31961 -1.87728 18.5709 -0.00894628 0.00859805 0.00136504
174 1 -2.5744 -4.43606 18.2991 0.0144845 0.00513192 0.0108541
164 1 -3.20122 -3.14909 18.456 0.00430469 0.0141485 0.00177657
187 1 -1.08608 -4.48355 18.17 0.00560257 0.00404361 0.0190604
150 1 -4.65733 -0.680084 18.8857 0.000255146 0.0118087 0.00553092
175 1 -2.47664 -1.90521 18.5885 0.00632398 0.0206613 0.00680401
165 1 -3.18418 -0.685941 18.7778 -0.000808138 0.0109074 0.0138724
189 1 -1.08024 -1.86227 18.5603 0.00333139 -0.0068724 0.020133
188 1 -0.434943 -3.19661 18.4257 0.00200701 0.00904065 0.0292028
190 1 -0.429387 -0.604984 18.723 0.00817922 0.00198337 0.0329148
243 1 5.52994 -5.49504 18.8165 -0.002699 0.00457733 -0.00630652
203 1 1.01134 -5.69006 18.185 -0.00141358 0.0045937 0.0076054
254 1 6.19833 -4.24574 18.7884 0.0101418 1.23009e-05 -0.0060487
226 1 4.04966 -5.52961 18.6467 -0.0067517 0.00699996 0.00507047
227 1 3.17413 -4.36176 18.5079 0.00827073 0.0078551 0.0118986
244 1 5.32778 -3.04807 18.7615 0.00613686 0.00195469 0.00462346
214 1 1.65953 -4.36303 18.2818 0.00973121 0.0135939 0.00794408
255 1 6.11059 -1.89805 18.8767 0.0161691 0.00729939 0.0090881
228 1 3.88264 -3.08033 18.6329 0.000182561 0.000485135 0.0145966
245 1 5.2774 -0.658649 19.0004 0.0155881 0.00924422 0.0118406
229 1 3.14848 -1.81793 18.7886 0.0104633 -0.000126111 0.0146254
230 1 3.79483 -0.561517 18.9506 0.00758828 -0.00804189 0.0175906
204 1 0.969004 -3.13473 18.6066 0.016209 0.00354383 0.0396215
215 1 1.64893 -1.81077 18.9109 0.0156242 0.00020612 0.0298105
205 1 0.927685 -0.613922 18.9886 0.00821048 -0.000354946 0.0372076
269 1 7.58588 -1.92533 18.825 0.00939471 0.0111505 -0.0145566
267 1 7.64948 -4.20986 18.8889 0.0128557 -0.00331864 0.00503934
283 1 9.79056 -5.47689 19.6455 0.000166427 0.0177271 -0.00551529
284 1 9.85781 -3.08869 19.3814 0.0128763 0.00812379 -0.00317351
285 1 9.74904 -0.693551 19.3957 0.00380914 0.000879733 -0.0142145
294 1 10.562 -4.28257 19.7047 -0.0100851 -0.00502931 0.00660237
295 1 10.5814 -1.86393 19.4673 0.000788088 0.003552 -0.00178358
306 1 12.6496 -5.55341 19.9999 0 0 0
307 1 11.9041 -4.32686 19.9999 0 0 0
308 1 12.647 -3.09734 19.9999 0 0 0
309 1 11.9037 -1.86828 19.9999 0 0 0
310 1 12.6457 -0.637745 19.9999 0 0 0
323 1 14.0539 -5.56516 19.9999 0 0 0
324 1 14.0472 -3.10129 19.9999 0 0 0
325 1 14.0438 -0.638188 19.9999 0 0 0
268 1 8.48155 -3.08352 19.0756 0.00329418 0.000165393 -0.00367978
270 1 8.32377 -0.702434 19.0454 0.0136911 -0.00822277 -9.11143e-05
266 1 8.42759 -5.35571 19.2827 0.00100547 -0.0109486 -0.00234422
71 1 -13.6826 0.591886 19.9999 0 0 0
72 1 -13.0424 1.82079 19.9999 0 0 0
73 1 -13.6895 3.04359 19.9999 0 0 0
74 1 -13.0413 4.27397 19.9999 0 0 0
75 1 -13.7195 5.48914 19.9999 0 0 0
86 1 -11.5623 1.82169 19.9999 0 0 0
87 1 -11.5564 4.27485 19.9999 0 0 0
96 1 -10.827 0.60974 20.0405 0.00825051 -0.00317838 -0.0192664
97 1 -10.9132 3.02882 19.7371 -0.00726345 0.00482378 0.00422892
98 1 -10.8522 5.51295 19.8525 -0.00980791 0.00109934 0.012433
111 1 -9.35213 0.580893 19.7393 -0.00249915 0.0103962 -0.0199052
112 1 -8.7971 1.81922 19.3658 -0.00831857 0.000881923 -0.0268038
113 1 -9.5561 2.969 19.1987 -0.0161494 -0.00341861 -0.00110503
114 1 -8.97794 4.22326 18.7762 -0.00400433 0.00369287 -0.00180193
115 1 -9.52904 5.41614 19.2979 -0.00318971 0.00261978 0.0202102
127 1 -7.58365 4.27438 18.4648 0.0188158 -0.0174762 -0.00936521
126 1 -7.40691 1.81001 18.8684 -0.00266117 0.0085249 -0.0249937
138 1 -6.8389 5.51756 18.6674 -0.000581498 -0.00665629 -0.00787481
136 1 -6.6927 0.610795 18.8796 -0.0035568 -0.0110425 -0.00789028
178 1 -2.50924 5.60848 18.3804 0.00270821 -0.0150877 -0.00463437
195 1 -1.03894 5.60588 18.2502 -0.00859926 -0.0114442 0.0137567
155 1 -5.42651 5.52784 18.4714 -0.00463332 -0.00657681 -0.0105062
137 1 -6.80512 3.00074 18.4236 0.00628389 -0.0076453 0.00533971
153 1 -5.35513 3.01103 18.3717 0.0160725 -0.0135711 0.0079726
154 1 -4.69827 4.28302 18.2758 0.00613295 -0.0111559 -0.0070611
167 1 -3.23102 4.40317 18.3759 0.0100604 -0.00284449 0.00287208
152 1 -4.57494 1.84447 18.6286 0.00217136 0.000717504 -0.00708447
151 1 -5.2613 0.582555 18.7386 -0.00577622 0.00461403 -0.012768
194 1 -0.333979 4.34899 18.4407 -0.00858212 0.00519226 0.0150299
177 1 -2.57102 3.15695 18.2965 0.0125994 -0.00219964 0.0177803
166 1 -3.20085 1.86963 18.4524 0.00270059 -0.00122058 0.00556466
193 1 -1.1686 3.14093 18.4988 0.0115164 -0.00696705 0.0182359
176 1 -2.52656 0.570706 18.4541 0.0011066 -0.00671055 0.0139392
191 1 -1.13967 0.625178 18.6236 0.0011159 -0.00860665 0.0210549
192 1 -0.494301 1.93723 18.7112 0.00213494 0.00560976 0.019536
258 1 6.33948 5.39882 18.9146 0.001679 -0.0108581 -0.0115068
235 1 3.23839 5.53589 18.6964 0.000551342 -0.0144342 0.006863
218 1 1.7056 5.50465 18.394 -0.000200893 -0.00423581 0.0123637
257 1 6.13033 2.97465 18.6328 0.0177167 -0.00761511 -0.00906675
247 1 5.42926 4.25203 18.7688 -0.000875551 -0.00460192 -0.00557471
234 1 3.89065 4.28039 18.7711 0.00831059 -0.00550522 0.00540757
207 1 0.998765 4.27387 18.3572 0.00385384 -0.00840657 0.0318092
246 1 5.2908 1.82486 18.8261 0.00432458 0.00760178 0.00864015
233 1 3.1556 3.01967 18.7634 0.00281192 -0.017103 0.0208083
232 1 3.8219 1.70328 18.925 0.00301003 0.010118 0.0286409
256 1 6.12485 0.561015 18.9099 0.00829515 -0.0120408 0.00237595
217 1 1.70501 3.01031 18.5524 -0.00612934 -0.00295165 0.0267827
231 1 2.93949 0.619705 19.0664 0.0103517 -0.00868215 0.0330182
206 1 0.871911 1.85245 18.8332 -0.00296055 0.00789223 0.0231077
216 1 1.55562 0.643111 19.0701 0.00190617 -0.0183252 0.0209054
271 1 7.63607 0.571626 18.8862 0.00334887 -0.00619145 -0.0179786
273 1 7.63373 3.08775 18.6515 0.0119057 0.012898 -0.00276926
275 1 7.80767 5.42971 18.9561 -0.00431847 0.000583508 -0.00110425
286 1 9.79091 1.77135 19.3438 0.0112409 0.00848354 0.00089759
287 1 9.92656 4.24607 19.4305 -0.000965223 0.00631665 0.0118154
296 1 10.4731 0.573083 19.6009 0.0262143 0.0111088 -0.0216012
297 1 10.5123 3.04598 19.5442 0.0106972 -0.00894487 0.00204125
298 1 10.5682 5.52536 19.746 -0.0109984 -0.000888632 0.00269566
311 1 11.9034 0.592385 19.9999 0 0 0
312 1 12.6457 1.82255 19.9999 0 0 0
313 1 11.9038 3.05326 19.9999 0 0 0
314 1 12.6466 4.28301 19.9999 0 0 0
315 1 11.9041 5.51379 19.9999 0 0 0
326 1 14.0439 1.82305 19.9999 0 0 0
327 1 14.0468 4.28589 19.9999 0 0 0
272 1 8.37816 1.81091 18.7929 -0.00114218 0.00893991 -0.00667158
274 1 8.52345 4.1806 18.9126 -0.00121894 -0.00641233 -0.00281487
76 1 -13.0678 6.73987 19.9999 0 0 0
77 1 -13.743 7.99662 19.9999 0 0 0
78 1 -13.076 9.22053 19.9999 0 0 0
79 1 -13.6781 10.6114 19.9999 0 0 0
80 1 -13.0646 11.9529 19.9999 0 0 0
88 1 -11.5395 6.7281 19.9999 0 0 0
89 1 -11.5535 9.18478 19.9999 0 0 0
90 1 -11.7099 11.6077 19.9999 0 0 0
99 1 -10.9335 7.97661 19.8614 -0.00330171 0.00597043 -0.00286047
100 1 -10.9027 10.4758 19.9999 0 0 0
116 1 -8.94074 6.72742 19.225 0.00414274 0.00635442 0.00111791
117 1 -9.48232 7.88713 19.699 -0.00236352 -0.00165806 -0.00553948
118 1 -8.7328 9.11032 20.0628 -0.00133872 -0.00109134 -0.0231333
119 1 -9.37207 10.4804 19.9999 0 0 0
120 1 -8.62688 11.6228 19.9999 0 0 0
130 1 -7.38724 11.6024 19.9999 0 0 0
128 1 -7.48203 6.7265 19.1673 -0.00382864 -0.00895708 -0.00233694
129 1 -7.36228 9.13349 19.9962 0.0150584 0.00596439 -0.00735496
139 1 -6.70889 7.90572 19.5857 -0.00495552 -0.0143701 0.0125089
140 1 -6.60892 10.469 19.9999 0 0 0
157 1 -5.24518 7.94021 19.2133 -0.000958637 -0.012019 0.0085195
158 1 -4.50081 9.14076 19.6641 -0.00829699 -0.002266 -0.00156521
159 1 -5.14663 10.4689 19.9999 0 0 0
160 1 -4.36691 11.6023 19.9999 0 0 0
169 1 -3.02124 9.09273 19.5994 0.00451408 0.00292761 -0.000932332
170 1 -3.12269 11.6018 19.9999 0 0 0
179 1 -2.33705 8.06487 18.9398 -0.012547 -0.000527127 -0.00718126
180 1 -2.34103 10.4689 19.9999 0 0 0
197 1 -0.901106 8.19977 18.7322 0.00387143 -0.00283846 -0.0111942
198 1 -0.104009 9.21576 19.3422 0.000287947 -0.00141458 0.00602577
199 1 -0.876963 10.4688 19.9999 0 0 0
200 1 -0.0953724 11.6018 19.9999 0 0 0
156 1 -4.61544 6.73732 18.5057 -0.00562377 -0.0152466 -0.00461719
168 1 -3.19665 6.9045 18.4945 -0.00744387 -0.0149788 -0.0065428
196 1 -0.25932 6.89818 18.3168 0.00707866 -0.0139395 0.00973309
209 1 1.30069 9.14309 19.4214 -0.00186044 0.00629773 0.00055939
210 1 1.14924 11.6018 19.9999 0 0 0
219 1 1.97381 7.86687 19.2083 0.00278772 -0.00451544 0.0192455
220 1 1.93091 10.4688 19.9999 0 0 0
237 1 3.42693 7.93825 19.4364 0.0133689 -0.00524707 0.00464714
238 1 4.01707 9.1579 19.9585 0.0124398 0.00360692 0.00841471
239 1 3.39506 10.4687 19.9999 0 0 0
240 1 4.17656 11.6018 19.9999 0 0 0
249 1 5.48437 9.09986 19.9855 0.00713854 0.00773255 -0.00879161
250 1 5.4212 11.6017 19.9999 0 0 0
259 1 6.25472 7.90058 19.5788 0.00714081 0.0085082 0.00412848
260 1 6.20335 10.4685 19.9999 0 0 0
248 1 5.55341 6.60982 19.1531 0.00309735 0.00433497 0.00867992
236 1 4.12258 6.6975 19.0078 -0.0018038 0.00432948 0.00423363
208 1 1.17779 6.85263 18.4489 0.00130731 0.0110304 0.00211275
277 1 7.70292 7.91721 19.4645 0.0141213 -0.00766855 -0.00147284
276 1 8.47899 6.68197 19.2524 -0.0132675 -0.0145145 0.00196687
278 1 8.41742 9.13423 19.8669 0.0096183 -0.00673616 -6.19161e-05
279 1 7.66711 10.4687 19.9999 0 0 0
280 1 8.44529 11.6024 19.9999 0 0 0
288 1 9.84398 6.72556 19.6071 0.00207858 -0.0109784 0.00242106
289 1 9.79866 9.16321 19.841 0.00743068 0.0112896 -0.00382833
290 1 9.6873 11.6101 19.9999 0 0 0
299 1 10.52 7.97649 19.799 0.0130036 0.00492009 -0.00134436
300 1 10.4752 10.4755 19.9999 0 0 0
316 1 12.6473 6.74288 19.9999 0 0 0
317 1 11.9051 7.97805 19.9999 0 0 0
318 1 12.6583 9.19198 19.9999 0 0 0
319 1 11.9246 10.4937 19.9999 0 0 0
320 1 12.7709 11.5297 19.9999 0 0 0
328 1 14.0456 6.75188 19.9999 0 0 0
329 1 14.0237 9.17042 19.9999 0 0 0
330 1 13.9415 11.792 19.9999 0 0 0
