ITEM: TIMESTEP
38100
ITEM: NUMBER OF ATOMS
330
ITEM: BOX BOUNDS pp pp pp
-1.4715758017245314e+01 1.5057610017245315e+01
-1.2710055654020760e+01 1.2664508654020761e+01
-5.0001035148846022e+01 1.0000103514884636e+02
ITEM: ATOMS id type x y z vx vy vz
8 1 -0.86692 -1.00709 4.36246 -0.0074598 0.0023996 -0.0493582
28 1 -1.73277 -2.02417 4.93083 0.000818769 5.64202e-06 -0.0330765
42 1 -3.0813 -0.149742 4.97628 -0.00397752 0.0128308 -0.04415
44 1 -3.11868 -1.57062 5.21019 -0.00391722 -0.00271713 -0.0409537
52 1 -1.19834 -3.04863 5.82237 0.00857697 -0.00387004 -0.0228384
20 1 -3.90041 -2.07243 6.38711 -0.00146689 0.00397683 -0.0535268
36 1 -1.94627 -3.49943 6.97079 -0.0111358 0.00961545 -0.0293634
4 1 -4.16416 -1.04419 7.39144 0.0126414 0.0109273 -0.0340767
60 1 -3.28349 -3.02773 7.25964 -0.00225187 0.0133892 -0.041253
12 1 -0.999911 -3.91563 7.96076 0.00879657 -0.00187829 -0.0284576
19 1 -4.19107 -1.54743 8.72308 0.00172213 -0.0027682 -0.0384226
58 1 -3.51743 -2.78155 8.66809 -0.00523467 0.000757412 -0.024928
11 1 -1.34212 -3.50703 9.27616 -0.00674677 -0.0218235 -0.0341218
34 1 -2.64382 -3.11826 9.79214 -0.0130319 -0.0084376 -0.0195608
43 1 -4.09588 -0.64939 9.81783 -0.0202827 0.00794933 -0.0347682
50 1 0.220458 -3.15217 6.05417 -0.00293599 -0.00233836 -0.0298186
7 1 0.587113 -1.00509 4.57036 -0.0144713 -0.00456899 -0.0332312
26 1 1.09891 -2.05035 5.52421 -0.00560621 0.00851834 -0.0313201
38 1 2.17772 -0.0427848 6.01855 -0.00994724 0.00563944 -0.0213266
40 1 2.22615 -1.47964 6.35773 -0.000306415 0.000731157 -0.0358658
16 1 2.32677 -1.97632 7.72485 0.0104528 0.00313611 -0.0184644
35 1 0.290756 -3.61248 7.46663 0.00467173 0.00705832 -0.0238774
59 1 1.34672 -2.93027 8.20766 -0.00596503 0.000357637 -0.0181034
2 1 2.34224 -0.950981 8.71809 0.00245666 -0.000592875 -0.0405418
15 1 1.61252 -1.48331 9.78245 -0.00370479 -0.00656381 -0.0330115
57 1 0.8674 -2.63275 9.52622 0.00770131 -0.011767 -0.0282215
27 1 -1.71441 0.148264 4.44201 0.00226265 -0.00347127 -0.0405865
51 1 -1.03332 1.44905 4.68963 0.00382535 -0.00167753 -0.0302587
32 1 -1.74365 2.40645 5.63812 -0.00829621 0.0147801 -0.0207697
10 1 -0.808108 2.99779 6.48411 -0.000699057 0.0150496 -0.0353408
18 1 -3.5595 0.803481 5.96255 0.00258807 -0.00855565 -0.0247536
56 1 -2.97021 2.05346 6.24992 -0.00686792 -0.0132135 -0.0391163
3 1 -4.33579 0.273332 7.05715 0.00394805 -0.00975193 -0.0378262
54 1 -3.18536 2.24364 7.64274 0.011337 -0.00530249 -0.0294108
9 1 -1.08725 3.33444 7.82942 0.00706866 0.00102855 -0.0515263
17 1 -3.94567 1.16246 8.11384 -0.00325754 -0.00275918 -0.018058
30 1 -2.2928 2.77748 8.47296 0.00798891 -0.00196533 -0.0343706
29 1 -0.179816 3.00396 8.88233 -0.00339791 -0.0102378 -0.0341279
47 1 -2.25677 2.48644 9.7933 -0.00442935 0.00464503 -0.0296544
41 1 -4.03462 0.787207 9.54091 -0.0199939 -0.0113552 -0.0250084
25 1 1.22282 0.23949 4.9766 -0.000263928 0.000332391 -0.0246748
49 1 0.335871 1.3886 5.12385 -0.00626732 0.00541042 -0.0381723
31 1 0.323185 2.23415 6.25007 -0.0122578 -0.00487848 -0.0238879
14 1 2.12751 0.876166 7.21565 0.0102741 0.0038726 -0.0223902
55 1 1.32613 2.03468 7.23826 -0.00109497 -0.0023635 -0.0138614
1 1 2.35805 0.481345 8.54319 0.018115 0.000541007 -0.0407378
53 1 1.12521 2.38577 8.60338 0.00186906 0.000400753 -0.0474661
13 1 1.7452 1.3341 9.33806 0.00016429 0.00109069 -0.020104
33 1 -0.374202 -3.03472 10.1235 0.0176074 -0.00251799 -0.0378376
24 1 -3.14693 -0.929767 10.8885 -0.00527887 0.00561429 -0.0415984
48 1 -2.43017 -2.20482 10.8381 -0.00251301 -0.00614323 -0.0438047
46 1 -1.0334 -2.0903 11.0154 -0.0178634 -0.01004 -0.0436879
22 1 -0.357906 -0.818615 11.1839 -0.00979243 0.000320243 -0.0477518
39 1 0.966676 -0.652144 10.6836 0.00465709 -0.00773972 -0.0492087
45 1 -0.859184 2.57236 10.127 -0.00504347 0.00714897 -0.0409705
23 1 -3.12446 1.37185 10.4073 -0.0213198 0.00271495 -0.0297579
6 1 -2.53951 0.340532 11.1264 0.00378529 -0.00916804 -0.0298203
5 1 -1.06928 0.424116 11.3348 -0.00629079 -0.00361226 -0.058798
21 1 -0.199291 1.44756 10.8149 -0.000570168 -0.00891585 -0.0472703
37 1 1.01134 0.757199 10.3978 0.0142894 0.00856328 -0.0248945
61 1 -13.6674 -11.9461 19.9999 0 0 0
62 1 -13.1228 -10.6724 19.9999 0 0 0
63 1 -13.7825 -9.34696 19.9999 0 0 0
64 1 -13.0772 -8.00396 19.9999 0 0 0
65 1 -13.7542 -6.79742 19.9999 0 0 0
81 1 -11.507 -10.5408 19.9999 0 0 0
82 1 -11.5331 -8.01671 19.9999 0 0 0
91 1 -10.7591 -11.6424 19.9999 0 0 0
92 1 -10.8348 -9.23759 20.1138 0.0020413 0.00608106 0.00207795
93 1 -10.935 -6.81439 19.5183 -0.0128819 -0.0035922 -0.00453681
101 1 -9.52473 -11.6468 19.9999 0 0 0
102 1 -8.74136 -10.5124 19.9999 0 0 0
103 1 -9.33039 -9.23908 20.1499 0.00490126 0.00238014 -0.0032508
104 1 -8.7397 -8.0511 19.6765 -0.00690497 0.0026225 0.00372943
105 1 -9.53278 -6.9671 19.2544 -0.00707214 -0.00311987 -0.00875191
121 1 -7.27873 -10.5146 19.9999 0 0 0
122 1 -7.33503 -8.1526 19.4557 0.00357265 0.0191332 0.00634844
131 1 -6.50232 -11.6488 19.9999 0 0 0
132 1 -6.60934 -9.35192 19.58 0.00457067 0.0199211 0.00865391
141 1 -5.25854 -11.6473 19.9999 0 0 0
142 1 -4.47674 -10.5145 19.9999 0 0 0
143 1 -5.12635 -9.44994 19.4289 -0.00448646 -0.00801637 0.00342097
144 1 -4.49459 -8.32648 19.0725 0.000143068 0.00415501 -0.00641305
161 1 -3.01281 -10.5144 19.9999 0 0 0
162 1 -3.09685 -8.29431 19.0007 -0.00196826 0.00290309 -0.0219248
171 1 -2.23133 -11.6474 19.9999 0 0 0
172 1 -2.27359 -9.36656 19.4744 0.00199128 0.00268129 0.0130444
181 1 -0.986751 -11.6474 19.9999 0 0 0
182 1 -0.205108 -10.5143 19.9999 0 0 0
183 1 -0.858819 -9.28225 19.5078 0.00288241 0.0048705 0.00227819
184 1 -0.29816 -8.16307 18.7639 -0.00628684 0.00317435 -0.0113419
133 1 -6.54032 -6.97506 19.2754 0.00339235 0.0194275 -0.00991732
145 1 -5.16704 -7.03661 18.9974 0.000911003 0.015346 0.00407309
173 1 -2.53808 -7.06166 18.5751 0.00289342 -0.00347173 -0.0117135
185 1 -1.09904 -6.92658 18.3365 0.00232711 0.000278099 -0.0103095
201 1 1.25901 -10.5143 19.9999 0 0 0
202 1 1.17125 -8.25978 18.7978 0.000309093 0.00334012 -0.0205382
211 1 2.0406 -11.6474 19.9999 0 0 0
212 1 1.87445 -9.30772 19.3668 0.00164592 0.00541355 0.00323275
221 1 3.28523 -11.6473 19.9999 0 0 0
222 1 4.06705 -10.5143 19.9999 0 0 0
223 1 3.37833 -9.31311 19.5302 0.00215132 0.011844 0.0135854
224 1 4.06329 -8.11424 19.2148 0.00523085 0.00648478 0.0143366
241 1 5.53108 -10.5143 19.9999 0 0 0
242 1 5.4716 -8.11252 19.2387 0.00529259 0.00805015 0.0132766
251 1 6.31174 -11.6474 19.9999 0 0 0
252 1 6.18478 -9.29929 19.6109 0.00351123 0.00323771 0.00114585
261 1 7.55524 -11.6498 19.9999 0 0 0
253 1 6.08241 -6.8075 19.2626 0.0118799 -0.00215559 -0.00275794
225 1 3.26278 -7.00283 18.6048 -0.0099299 0.00805005 0.00408367
213 1 1.85599 -7.02971 18.3725 0.00399784 0.0072888 -0.00341967
265 1 7.51588 -6.84571 19.4455 0.0129027 0.00559904 -0.00758892
263 1 7.598 -9.26228 19.7295 0.0146222 0.00589573 0.00431082
262 1 8.33779 -10.5154 19.9999 0 0 0
264 1 8.31242 -8.04416 19.7273 0.000624811 0.0127764 0.00169123
281 1 9.79556 -10.5245 19.9999 0 0 0
282 1 9.72007 -7.99577 20.0307 -0.000919648 0.00251836 -0.0132837
291 1 10.5816 -11.6418 19.9999 0 0 0
292 1 10.4538 -9.17286 19.845 0.00419986 0.00902924 0.000837453
293 1 10.4729 -6.79194 19.9073 -0.0034755 -0.00764688 0.00319991
301 1 11.8019 -11.7522 19.9999 0 0 0
302 1 12.7161 -10.5156 19.9999 0 0 0
303 1 11.8934 -9.22642 19.9999 0 0 0
304 1 12.655 -8.00627 19.9999 0 0 0
305 1 11.8992 -6.77596 19.9999 0 0 0
321 1 14.087 -10.4984 19.9999 0 0 0
322 1 14.0714 -8.01298 19.9999 0 0 0
66 1 -13.0658 -5.54976 19.9999 0 0 0
67 1 -13.7179 -4.30197 19.9999 0 0 0
68 1 -13.0406 -3.0891 19.9999 0 0 0
69 1 -13.6883 -1.86008 19.9999 0 0 0
70 1 -13.0424 -0.636745 19.9999 0 0 0
83 1 -11.5387 -5.54743 19.9999 0 0 0
84 1 -11.5566 -3.09089 19.9999 0 0 0
85 1 -11.5625 -0.637245 19.9999 0 0 0
94 1 -10.8584 -4.32914 19.8413 -0.000317321 0.00530279 0.00362919
95 1 -10.8493 -1.85979 20.0677 -0.00181673 0.0104683 -0.0057213
106 1 -8.76267 -5.72347 19.1474 0.00376762 0.00400534 -0.0146717
107 1 -9.38743 -4.43385 19.5014 0.018873 0.0126483 -0.013112
108 1 -8.79311 -3.09063 19.4432 -0.001349 0.0144539 -0.0152443
109 1 -9.42472 -1.84855 19.8888 -0.00222453 0.00663585 -0.00787699
110 1 -8.67842 -0.626402 19.9882 -0.00466959 -0.00119531 -0.0128661
123 1 -7.36177 -5.79999 18.9716 0.00291569 0.00159561 -0.0107164
124 1 -7.46177 -3.09706 18.8457 -0.00351592 0.00228115 -0.0249545
125 1 -7.33489 -0.668334 19.499 0.0133825 0.00204792 -0.0149367
186 1 -0.327783 -5.68875 18.0171 0.00140567 0.00501182 0.0034627
134 1 -6.79439 -4.44689 18.7415 -0.00432268 0.00768517 -0.0117032
135 1 -6.7342 -1.90589 19.0083 -0.00786471 0.00608419 -0.0148771
146 1 -4.60224 -5.81604 18.6049 -0.00187271 0.0111081 -0.013933
147 1 -5.4095 -4.52986 18.6265 0.000596717 0.000638963 -0.00516988
163 1 -3.26275 -5.86673 18.1671 -0.0031958 0.0120075 -0.008856
148 1 -4.69651 -3.28863 18.5542 0.00676186 0.00539884 -0.00551349
149 1 -5.22789 -1.97784 18.6771 0.00684471 -0.000341091 -0.0101688
174 1 -2.62871 -4.58022 17.957 -0.00453603 -0.0100742 0.00864348
164 1 -3.28348 -3.41767 18.2734 -0.00431495 -0.0029662 0.0142954
187 1 -1.19335 -4.54264 17.8084 0.00332855 0.00401666 0.00874852
150 1 -4.64948 -0.682249 18.541 0.00944442 0.00351535 0.0110751
175 1 -2.63706 -2.09772 18.2647 0.00773961 0.0056956 0.0212393
165 1 -3.24752 -0.71898 18.2499 0.0132997 -0.00279134 0.0123492
189 1 -1.25947 -2.00421 17.9138 -0.000751632 0.00291549 0.0259423
188 1 -0.465652 -3.29879 17.6475 -0.0110796 0.00460931 0.0253295
190 1 -0.575003 -0.737558 17.8994 -0.00614058 -0.00240629 0.0246741
243 1 5.33679 -5.60397 18.9115 0.0144335 0.0129712 -0.0013913
203 1 1.10283 -5.73944 18.0585 -0.00356393 -0.00211724 -0.000294601
254 1 6.09054 -4.38399 18.8564 0.00367035 0.00520923 0.00110764
226 1 3.88909 -5.70821 18.5723 -0.000501578 0.00571033 0.000408354
227 1 3.19477 -4.45762 18.2369 -0.00312041 0.00843782 0.00435487
244 1 5.26079 -3.15468 18.6004 -0.00937327 -0.00421045 0.00282445
214 1 1.70712 -4.47763 18.0749 0.00212709 0.00313682 0.0187643
255 1 5.93137 -1.86709 18.7508 0.00473389 -0.00700594 -0.0013282
228 1 3.80196 -3.14898 18.3759 -0.00514448 0.00467402 0.00501431
245 1 5.1104 -0.650757 18.5787 0.000602228 0.00965805 0.0106868
229 1 2.93308 -1.94456 18.3547 -0.00830972 0.00176674 0.0213837
230 1 3.66602 -0.707641 18.4331 -0.00329529 -0.00198861 0.0218078
204 1 0.930302 -3.2874 17.6538 0.00479732 -0.00238294 0.0223061
215 1 1.49139 -1.92078 17.8837 -0.00987012 0.00490126 0.0350003
205 1 0.884856 -0.64874 17.9721 0.00481408 0.00521656 0.0360695
269 1 7.36979 -1.82661 19.2225 -0.0049024 0.0101273 -0.00190803
267 1 7.50829 -4.33434 19.1286 0.00405962 -0.00105588 -0.0152532
283 1 9.75159 -5.55004 19.6226 0.0104514 -0.00952916 0.0071591
284 1 9.6352 -3.0801 19.4542 0.00611766 -0.0126369 -0.00579243
285 1 9.66848 -0.65253 19.7 0.00156941 -0.00439974 -0.0108861
294 1 10.5289 -4.25932 19.6437 0.00810967 0.0002205 -0.00500704
295 1 10.4003 -1.86934 19.8329 -0.00392991 0.00232023 -0.0156275
306 1 12.6496 -5.55341 19.9999 0 0 0
307 1 11.9041 -4.32686 19.9999 0 0 0
308 1 12.647 -3.09734 19.9999 0 0 0
309 1 11.9037 -1.86828 19.9999 0 0 0
310 1 12.6457 -0.637745 19.9999 0 0 0
323 1 14.0539 -5.56516 19.9999 0 0 0
324 1 14.0472 -3.10129 19.9999 0 0 0
325 1 14.0438 -0.638188 19.9999 0 0 0
268 1 8.14596 -3.07519 19.1616 0.00411002 0.00258392 -0.0124789
270 1 8.16573 -0.606693 19.3415 0.0150533 -0.0147888 -0.022108
266 1 8.27053 -5.58902 19.3035 0.00870405 0.017507 -0.00325633
71 1 -13.6826 0.591886 19.9999 0 0 0
72 1 -13.0424 1.82079 19.9999 0 0 0
73 1 -13.6895 3.04359 19.9999 0 0 0
74 1 -13.0413 4.27397 19.9999 0 0 0
75 1 -13.7195 5.48914 19.9999 0 0 0
86 1 -11.5623 1.82169 19.9999 0 0 0
87 1 -11.5564 4.27485 19.9999 0 0 0
96 1 -10.8496 0.620959 20.1291 -0.0115932 0.00609057 0.00848545
97 1 -10.8739 3.05722 19.8441 0.00128135 -0.0101992 -0.011253
98 1 -10.9228 5.49629 19.5517 0.00467773 0.00426006 0.00518848
111 1 -9.40474 0.631034 20.1818 -0.00264608 -0.0102997 -0.00426641
112 1 -8.73488 1.9145 19.7624 -0.00602584 -0.0038932 -0.00246035
113 1 -9.49916 3.14082 19.572 0.00469095 -0.0175647 -0.0161892
114 1 -8.8735 4.33626 19.0807 -0.00498769 -0.00315802 -0.018649
115 1 -9.54723 5.63463 19.0746 -0.00666375 -0.0112335 -0.0102404
127 1 -7.4899 4.42338 18.7723 -0.0106707 -0.00231208 -0.0151138
126 1 -7.38998 1.85004 19.3301 0.0153272 -0.00338421 -0.0140243
138 1 -6.69745 5.71165 18.7977 -0.00228182 -0.00283877 -0.00124249
136 1 -6.63441 0.58479 19.3249 0.00449303 0.00742631 -0.0250915
178 1 -2.56514 5.68638 18.2818 0.00245439 -0.0152323 0.00392473
195 1 -1.10319 5.79194 18.1013 0.0114059 -0.00392993 0.00326944
155 1 -5.26682 5.82255 18.667 -0.00412384 -0.00784576 -0.0057301
137 1 -6.7749 3.14602 18.7216 -0.0088775 -0.00681658 -0.0239145
153 1 -5.46913 3.24266 18.4663 -0.00540204 0.00113185 -0.012603
154 1 -4.72559 4.55094 18.4547 -0.00920388 -0.00435729 -0.00111514
167 1 -3.28884 4.4722 18.1651 -0.00696397 -0.00456889 0.00664305
152 1 -4.8087 1.9111 18.4842 -0.00114915 -0.00451919 0.00966232
151 1 -5.30138 0.676871 18.9217 0.00781538 -0.0131733 0.00879274
194 1 -0.432182 4.51729 17.7445 0.00484874 -0.00908021 0.0230805
177 1 -2.67254 3.19844 18.1247 0.00113491 -0.000884122 -0.000102291
166 1 -3.42502 1.95352 18.2613 -0.00934 0.00267654 0.00846658
193 1 -1.19127 3.21071 17.9163 -0.0117083 0.0013607 0.024034
176 1 -2.66908 0.626863 18.3157 0.00243783 -0.00796518 0.00959291
191 1 -1.2679 0.644996 18.0426 -0.00608518 -0.0128439 0.0184663
192 1 -0.474273 1.9201 18.0034 -0.00681324 0.0112581 0.0285521
258 1 6.0836 5.58901 19.0355 0.0135842 -0.018789 0.000289945
235 1 3.34561 5.54992 18.4851 -0.0109168 -0.00177043 0.00472705
218 1 1.85391 5.75222 18.1627 0.00504746 -0.0227285 0.00278606
257 1 6.13502 3.08498 18.9194 -0.00960895 0.0049836 -0.00531755
247 1 5.46892 4.30056 18.8756 0.00327381 0.00526252 0.000693709
234 1 4.06895 4.34399 18.488 0.0100013 0.00479609 0.0186967
207 1 1.05295 4.51654 17.8142 0.00439418 -0.00054547 0.00989466
246 1 5.26635 1.89629 18.5817 -0.0138839 0.000549315 0.0019792
233 1 3.19025 3.23308 18.1479 -0.0121621 -0.00971524 0.0201067
232 1 3.86681 1.91481 18.2098 0.00176247 0.00726986 0.0183061
256 1 5.89251 0.637091 18.8318 -0.000902931 -0.0119337 0.00555123
217 1 1.7366 3.22523 17.9735 0.00102551 -0.00260623 0.0164738
231 1 3.11978 0.664932 18.2245 -0.00664793 0.00461072 0.0261971
206 1 1.00266 1.91575 18.0868 0.0048898 0.00550214 0.0281872
216 1 1.63753 0.620338 18.1473 0.00363838 -0.00767662 0.050235
275 1 7.5137 5.52875 19.0865 0.00937764 0.00734976 -0.00566196
271 1 7.34629 0.555361 19.1845 -0.00891255 0.00264801 -0.00270134
273 1 7.59425 3.02763 19.0386 0.00615929 -0.00644375 -0.0189335
286 1 9.69582 1.74531 19.5536 0.0170497 -0.0122203 -0.0113274
287 1 9.7644 4.2114 19.227 -0.00274111 -0.0150213 -0.00802625
296 1 10.4459 0.625584 19.8833 -0.00207925 0.0102666 0.00678653
297 1 10.434 2.96085 19.5674 -0.00221108 -0.00971743 0.000163327
298 1 10.4752 5.45875 19.5014 -0.0100753 -0.0035229 0.00158838
311 1 11.9034 0.592385 19.9999 0 0 0
312 1 12.6457 1.82255 19.9999 0 0 0
313 1 11.9038 3.05326 19.9999 0 0 0
314 1 12.6466 4.28301 19.9999 0 0 0
315 1 11.9041 5.51379 19.9999 0 0 0
326 1 14.0439 1.82305 19.9999 0 0 0
327 1 14.0468 4.28589 19.9999 0 0 0
272 1 8.24398 1.76116 19.2623 0.00539883 0.0132355 -0.0274044
274 1 8.19382 4.28659 19.0153 -0.000223868 -0.00541314 -0.00852272
76 1 -13.0678 6.73987 19.9999 0 0 0
77 1 -13.743 7.99662 19.9999 0 0 0
78 1 -13.076 9.22053 19.9999 0 0 0
79 1 -13.6781 10.6114 19.9999 0 0 0
80 1 -13.0646 11.9529 19.9999 0 0 0
88 1 -11.5395 6.7281 19.9999 0 0 0
89 1 -11.5535 9.18478 19.9999 0 0 0
90 1 -11.7099 11.6077 19.9999 0 0 0
99 1 -10.7866 7.98044 19.995 -0.00520646 0.00801802 -0.00616644
100 1 -10.9027 10.4758 19.9999 0 0 0
116 1 -8.78934 6.80444 19.4268 -0.00611584 -0.0167155 -0.00871319
117 1 -9.36424 8.0029 19.9362 0.00654877 -0.000219039 -0.00799795
118 1 -8.64834 9.22849 20.0659 0.00103438 -0.00889656 0.0185836
119 1 -9.37207 10.4804 19.9999 0 0 0
120 1 -8.62688 11.6228 19.9999 0 0 0
130 1 -7.38724 11.6024 19.9999 0 0 0
128 1 -7.36394 6.94304 19.1034 0.00392657 -0.00154331 0.00315312
129 1 -7.25574 9.26936 19.9315 -0.013106 -0.00186215 0.0152376
139 1 -6.66429 8.20705 19.2756 -0.00332762 -0.0149312 -3.73576e-05
140 1 -6.60892 10.469 19.9999 0 0 0
157 1 -5.27618 8.25144 19.1722 -0.0090622 -0.000977377 -0.00465016
158 1 -4.45683 9.30231 19.5904 -0.000639773 0.00462066 0.010003
159 1 -5.14663 10.4689 19.9999 0 0 0
160 1 -4.36691 11.6023 19.9999 0 0 0
169 1 -3.11462 9.27107 19.599 0.01032 -0.00591384 0.00124309
170 1 -3.12269 11.6018 19.9999 0 0 0
179 1 -2.38131 8.17991 19.1364 0.00151429 0.0141214 0.00263376
180 1 -2.34103 10.4689 19.9999 0 0 0
197 1 -0.957197 8.11137 18.9881 0.00778703 0.00736784 -0.00391862
198 1 -0.260641 9.25763 19.4373 0.00502264 0.00801208 -0.00841384
199 1 -0.876963 10.4688 19.9999 0 0 0
200 1 -0.0953724 11.6018 19.9999 0 0 0
156 1 -4.58368 7.08048 18.9157 0.0025113 -0.00400211 -0.0132711
168 1 -3.14861 6.94877 18.7448 -0.00100646 0.0113742 -0.0109538
196 1 -0.262254 6.94884 18.365 0.00580954 0.00801303 -0.019123
209 1 1.14034 9.29354 19.469 -0.000306094 -0.00268693 0.00661494
210 1 1.14924 11.6018 19.9999 0 0 0
219 1 1.87204 8.18482 18.8484 -0.00979379 -0.00661081 -0.00625899
220 1 1.93091 10.4688 19.9999 0 0 0
237 1 3.23837 8.0491 19.1685 0.00031217 -0.0139779 0.0121995
238 1 3.98401 9.20587 19.6666 0.000159628 -0.00888243 0.0123075
239 1 3.39506 10.4687 19.9999 0 0 0
240 1 4.17656 11.6018 19.9999 0 0 0
249 1 5.42618 9.1809 19.7838 0.00405641 0.000325304 0.020412
250 1 5.4212 11.6017 19.9999 0 0 0
259 1 6.11304 8.02974 19.534 0.00474342 -0.00952248 0.0017709
260 1 6.20335 10.4685 19.9999 0 0 0
248 1 5.33339 6.7705 19.1266 0.00454671 -0.0119574 -0.00912027
236 1 3.93753 6.77538 18.9619 0.00962746 -0.0106681 0.00275524
208 1 1.16172 6.94528 18.4582 -0.00177619 -0.0144204 0.00645467
277 1 7.63303 7.98317 19.5938 -0.00411235 0.00360835 -0.00216837
276 1 8.3107 6.72942 19.308 0.00568385 0.00304595 -0.00956548
278 1 8.35643 9.20349 19.7838 -0.00231301 -0.00375707 -0.00116572
279 1 7.66711 10.4687 19.9999 0 0 0
280 1 8.44529 11.6024 19.9999 0 0 0
288 1 9.77109 6.73991 19.5099 0.00510617 0.0124653 0.00302685
289 1 9.79148 9.21209 19.9723 -0.0020596 0.00497804 -0.000441956
290 1 9.6873 11.6101 19.9999 0 0 0
299 1 10.4774 7.98304 19.9024 -0.00877511 0.0156255 0.000412908
300 1 10.4752 10.4755 19.9999 0 0 0
316 1 12.6473 6.74288 19.9999 0 0 0
317 1 11.9051 7.97805 19.9999 0 0 0
318 1 12.6583 9.19198 19.9999 0 0 0
319 1 11.9246 10.4937 19.9999 0 0 0
320 1 12.7709 11.5297 19.9999 0 0 0
328 1 14.0456 6.75188 19.9999 0 0 0
329 1 14.0237 9.17042 19.9999 0 0 0
330 1 13.9415 11.792 19.9999 0 0 0
