ITEM: TIMESTEP
47000
ITEM: NUMBER OF ATOMS
330
ITEM: BOX BOUNDS pp pp pp
-1.4715758017245314e+01 1.5057610017245315e+01
-1.2710055654020760e+01 1.2664508654020761e+01
-5.0001035148846022e+01 1.0000103514884636e+02
ITEM: ATOMS id type x y z vx vy vz
61 1 -13.6674 -11.9461 19.9999 0 0 0
62 1 -13.1228 -10.6724 19.9999 0 0 0
63 1 -13.7825 -9.34696 19.9999 0 0 0
64 1 -13.0772 -8.00396 19.9999 0 0 0
65 1 -13.7542 -6.79742 19.9999 0 0 0
81 1 -11.507 -10.5408 19.9999 0 0 0
82 1 -11.5331 -8.01671 19.9999 0 0 0
91 1 -10.7591 -11.6424 19.9999 0 0 0
92 1 -10.8828 -9.30324 19.767 0.0328444 -0.000333298 0.0223843
93 1 -10.7156 -6.84929 20.1113 0.00592634 0.0010244 -0.0216657
101 1 -9.52473 -11.6468 19.9999 0 0 0
102 1 -8.74136 -10.5124 19.9999 0 0 0
103 1 -9.41408 -9.28154 20.0601 0.0284633 0.0241801 0.0144828
104 1 -8.6569 -8.16856 19.9902 0.00458077 -0.0221883 -0.00992326
105 1 -9.24705 -6.86909 20.0578 0.00632911 -0.0131642 -0.00259674
121 1 -7.27873 -10.5146 19.9999 0 0 0
122 1 -7.1826 -7.95263 20.0137 0.00096201 -0.0170019 0.0224297
131 1 -6.50232 -11.6488 19.9999 0 0 0
132 1 -6.54198 -9.24635 20.1898 -0.0162991 0.0254353 0.00579581
141 1 -5.25854 -11.6473 19.9999 0 0 0
142 1 -4.47674 -10.5145 19.9999 0 0 0
143 1 -5.11233 -9.33108 20.0901 0.00156528 -0.00163703 0.0102522
161 1 -3.01281 -10.5144 19.9999 0 0 0
171 1 -2.23133 -11.6474 19.9999 0 0 0
172 1 -2.44415 -9.2132 19.8119 0.0125264 -0.0172558 0.00821176
181 1 -0.986751 -11.6474 19.9999 0 0 0
182 1 -0.205108 -10.5143 19.9999 0 0 0
183 1 -1.0694 -9.3447 20.1483 -0.0274089 -0.00242989 -0.0117255
162 1 -3.14078 -8.07394 19.6012 -0.0011937 -0.0228549 0.0068179
144 1 -4.52686 -7.90201 19.7431 0.00129021 0.00641066 0.0214182
133 1 -6.50539 -6.66356 20.2058 -0.00259415 -0.0067126 0.00274136
145 1 -5.07552 -6.70749 20.0471 0.001912 -0.01144 0.000973715
173 1 -2.40585 -7.09464 20.4157 0.0151346 -0.0222773 0.0367378
184 1 -0.122278 -8.34765 20.5771 -0.00651373 -0.00551718 -0.00822773
185 1 -1.08744 -7.3733 21.1023 -0.0229204 0.0226587 0.000360898
201 1 1.25901 -10.5143 19.9999 0 0 0
211 1 2.0406 -11.6474 19.9999 0 0 0
212 1 1.95143 -9.25348 20.056 0.0222079 -0.00996991 0.00617988
221 1 3.28523 -11.6473 19.9999 0 0 0
222 1 4.06705 -10.5143 19.9999 0 0 0
223 1 3.39907 -9.20417 19.9669 0.0163845 -0.0158457 0.0226351
224 1 4.22133 -8.06953 19.8683 -0.00106774 0.00819493 0.0088376
241 1 5.53108 -10.5143 19.9999 0 0 0
242 1 5.57664 -7.92654 20.0226 -0.0082542 0.00469405 0.00554895
251 1 6.31174 -11.6474 19.9999 0 0 0
252 1 6.22428 -9.20078 20.1655 0.00316177 0.0144911 0.00418109
261 1 7.55524 -11.6498 19.9999 0 0 0
202 1 1.13267 -8.2969 20.0822 0.0114115 0.0126205 -0.033483
225 1 3.36654 -6.74486 19.9257 0.00445659 -0.0221981 0.0129324
213 1 1.98534 -6.93492 20.2123 0.0266425 -0.0153593 -0.00358013
253 1 6.19273 -6.91493 20.5358 0.00775809 -0.0143326 0.0119289
263 1 7.5362 -9.31508 20.2221 0.0227184 0.0124969 -0.00242639
265 1 7.68766 -6.86285 20.7714 -0.0145289 -0.000112962 -0.011736
262 1 8.33779 -10.5154 19.9999 0 0 0
264 1 8.25906 -8.20683 20.5393 0.0149119 0.00987739 0.0308666
281 1 9.79556 -10.5245 19.9999 0 0 0
282 1 9.77004 -8.07423 20.3899 0.00556215 -0.00948638 0.0266752
291 1 10.5816 -11.6418 19.9999 0 0 0
292 1 10.5196 -9.29402 20.228 0.0150623 -0.0115939 0.0188219
293 1 10.4551 -6.80422 20.4487 -0.0113993 -0.0140543 -0.00386213
301 1 11.8019 -11.7522 19.9999 0 0 0
302 1 12.7161 -10.5156 19.9999 0 0 0
303 1 11.8934 -9.22642 19.9999 0 0 0
304 1 12.655 -8.00627 19.9999 0 0 0
305 1 11.8992 -6.77596 19.9999 0 0 0
321 1 14.087 -10.4984 19.9999 0 0 0
322 1 14.0714 -8.01298 19.9999 0 0 0
66 1 -13.0658 -5.54976 19.9999 0 0 0
67 1 -13.7179 -4.30197 19.9999 0 0 0
68 1 -13.0406 -3.0891 19.9999 0 0 0
69 1 -13.6883 -1.86008 19.9999 0 0 0
70 1 -13.0424 -0.636745 19.9999 0 0 0
83 1 -11.5387 -5.54743 19.9999 0 0 0
84 1 -11.5566 -3.09089 19.9999 0 0 0
85 1 -11.5625 -0.637245 19.9999 0 0 0
94 1 -10.7981 -4.39456 20.1736 0.00378624 -0.0110627 -0.00500479
95 1 -10.6994 -1.93918 20.0508 -0.00352554 0.00585284 0.00875724
106 1 -8.59694 -5.5792 20.1359 -0.0128045 0.0223907 0.0116653
107 1 -9.26287 -4.37622 20 0.0171164 0.0299344 0.0292881
109 1 -9.25819 -1.95314 19.9787 0.00461108 0.0260761 -0.00778296
110 1 -8.68779 -0.810155 19.2489 -0.00768386 -0.000148758 -0.0230359
108 1 -8.36663 -3.15139 20.1607 0.0129508 4.10581e-05 -0.00970473
124 1 -6.85662 -2.96971 20.0179 0.0200751 0.0380026 3.46451e-05
125 1 -7.15035 -0.665247 19.1887 -0.00743207 -0.0133579 -0.0317518
123 1 -7.18487 -5.59163 20.0632 0.0206199 0.0208808 0.0268645
146 1 -4.35355 -5.47836 20.5794 0.00761115 -0.0242465 -0.0199451
134 1 -6.33006 -4.39805 20.4301 0.00027499 0.0126203 0.0152452
147 1 -5.03251 -4.27086 20.683 0.00106998 -0.00453768 -0.00520128
135 1 -6.1319 -1.55785 19.7103 0.0180765 0.0168398 -0.036303
163 1 -3.06701 -6.0489 21.2293 0.0319261 -0.00756061 -0.0545509
149 1 -4.38674 -0.589934 21.8052 -0.00101799 0.00596627 -0.0257888
150 1 -5.15735 -0.600808 20.61 -0.0113519 0.0187703 0.00711961
226 1 4.14181 -5.59095 19.6926 0.00870922 0.00200758 -0.0255977
243 1 5.38432 -5.811 20.2348 -0.0188793 -0.00867054 0.0179682
254 1 6.35855 -4.68509 20.2135 0.036455 -0.00665617 0.0202933
203 1 1.26828 -5.8946 21.1296 0.00903973 0.0260328 -0.011478
244 1 5.59927 -3.47837 20.2039 0.0242764 0.0261002 0.0443087
227 1 3.08839 -4.45604 19.7252 0.0119589 -0.0209057 -0.0329422
214 1 1.92938 -4.68042 20.6817 0.00832608 -0.00733549 -0.0288616
255 1 6.34325 -2.61549 19.2919 0.00188217 -0.0126519 -0.00113195
228 1 3.98466 -3.51887 20.2718 0.024444 0.00996908 -0.0313221
245 1 5.72873 -1.15843 19.0716 0.0128771 0.0206037 -0.0625127
229 1 3.22947 -3.23944 21.5992 -0.0260723 -0.032135 -0.0124418
269 1 7.63525 -2.30379 19.7217 0.000768832 0.0088915 -0.0520128
267 1 7.76624 -4.57746 20.5436 0.0084269 0.0034373 -0.013131
283 1 9.80787 -5.57766 20.2397 0.00994286 0.00695425 -0.00324508
284 1 9.78516 -3.02506 20.0252 -0.00569361 0.0243697 0.00179618
285 1 9.67793 -0.64001 19.5397 -0.0067105 0.00218851 -0.0127198
294 1 10.4144 -4.2666 20.2125 0.0029089 0.0389006 -0.0127289
295 1 10.567 -1.77971 19.817 -0.0040007 -0.0110975 0.00532715
306 1 12.6496 -5.55341 19.9999 0 0 0
307 1 11.9041 -4.32686 19.9999 0 0 0
308 1 12.647 -3.09734 19.9999 0 0 0
309 1 11.9037 -1.86828 19.9999 0 0 0
310 1 12.6457 -0.637745 19.9999 0 0 0
323 1 14.0539 -5.56516 19.9999 0 0 0
324 1 14.0472 -3.10129 19.9999 0 0 0
325 1 14.0438 -0.638188 19.9999 0 0 0
268 1 8.40293 -3.32791 20.2617 -0.00824896 0.0117752 -0.0166361
270 1 8.36268 -1.04071 19.2389 0.00805355 -0.0127216 -0.0230652
266 1 8.48733 -5.76357 20.5195 -0.0109597 0.0097934 -0.00926394
71 1 -13.6826 0.591886 19.9999 0 0 0
72 1 -13.0424 1.82079 19.9999 0 0 0
73 1 -13.6895 3.04359 19.9999 0 0 0
74 1 -13.0413 4.27397 19.9999 0 0 0
75 1 -13.7195 5.48914 19.9999 0 0 0
86 1 -11.5623 1.82169 19.9999 0 0 0
87 1 -11.5564 4.27485 19.9999 0 0 0
96 1 -10.8687 0.568525 19.6811 -0.0261086 -0.0124319 -0.0208186
97 1 -10.6837 3.01537 20.056 0.0105012 -0.00183655 -0.00422021
98 1 -10.9048 5.52868 19.9735 0.00474843 -0.0252992 -0.00863026
111 1 -9.48806 0.385856 19.1776 -0.0136985 -0.000423652 -0.0138235
113 1 -9.21028 2.82413 19.7323 0.0109841 -0.0380184 0.011068
115 1 -9.51812 5.61637 19.8261 -0.017438 -0.0287098 0.0124392
112 1 -8.78002 1.68927 18.9729 -0.0110549 -0.0332316 0.00502658
114 1 -8.74418 4.20251 19.5206 0.0223994 -0.0357646 0.0180715
126 1 -7.32865 1.50984 18.6093 0.00594286 0.00829965 -0.0218243
127 1 -7.36052 4.06158 19.0789 0.00683566 0.00564123 -0.00951928
138 1 -6.75452 5.45955 19.2756 0.0166512 -0.00783353 -0.0193433
155 1 -5.29281 5.24697 19.2821 -0.0177944 -0.0114436 -0.0136298
137 1 -6.87246 2.73894 19.148 0.0171829 -0.0113627 -0.022833
154 1 -4.89128 3.96731 19.987 0.0220911 -0.00121453 -0.0418546
153 1 -5.3109 2.9386 19.0755 0.00343665 -0.0207985 -0.0256085
136 1 -6.2898 0.350954 18.5002 -0.0171911 0.00211652 -0.0321706
151 1 -4.89765 0.107815 19.323 -0.01217 0.0122444 0.0109485
152 1 -4.72065 1.58454 19.1868 0.00923325 -0.0117266 -0.0119549
167 1 -4.09954 4.37926 21.0826 -0.00316362 -0.0253791 -0.0170759
178 1 -3.14474 5.48045 20.6545 -0.0139863 -0.0242052 -0.0514585
195 1 -2.61865 5.99858 21.9393 -0.0125595 -0.027026 -0.024667
258 1 6.3451 5.51684 19.7132 -0.00691064 0.0226782 -0.00298402
247 1 5.64362 4.21218 19.8695 0.00380703 -0.0083775 -0.0293594
257 1 6.2691 2.89552 19.9294 0.00839271 -0.0193381 -0.0058234
246 1 5.77123 1.49378 19.8322 0.022621 -0.0184525 -0.0344346
256 1 6.16374 0.0828345 19.6419 0.0160086 -0.00708707 -0.0446791
234 1 4.83935 4.37211 21.2002 -0.029219 0.0213655 -0.0225466
235 1 4.43571 5.79243 21.2139 -0.0149055 -0.0205027 -0.0201509
275 1 7.59408 5.36783 19.899 0.00491015 -0.0209598 -0.0121634
233 1 6.25719 4.27117 21.8495 0.000591256 -0.014254 -0.00968979
271 1 7.76708 0.249144 19.616 0.00353648 -0.00227725 -0.0280742
273 1 7.724 2.757 20.061 0.00593589 -0.0116278 -0.0221573
286 1 9.87385 1.69635 19.8229 -0.00573599 -0.00576648 -0.0289859
287 1 9.84587 4.27354 20.1582 -0.00754304 -0.0248025 -0.0099718
296 1 10.5553 0.480337 19.7776 -0.0151854 -0.0017759 0.0129427
297 1 10.6158 2.91209 19.8814 -0.0214207 0.00997667 -0.0107408
298 1 10.531 5.62753 20.0292 -0.00308213 -0.00299999 -0.00870785
311 1 11.9034 0.592385 19.9999 0 0 0
312 1 12.6457 1.82255 19.9999 0 0 0
313 1 11.9038 3.05326 19.9999 0 0 0
314 1 12.6466 4.28301 19.9999 0 0 0
315 1 11.9041 5.51379 19.9999 0 0 0
326 1 14.0439 1.82305 19.9999 0 0 0
327 1 14.0468 4.28589 19.9999 0 0 0
274 1 8.40849 4.1159 20.2382 -0.0130991 -0.0204229 0.0033085
272 1 8.47481 1.56105 19.8439 -0.00234942 -0.0272968 -0.00363137
76 1 -13.0678 6.73987 19.9999 0 0 0
77 1 -13.743 7.99662 19.9999 0 0 0
78 1 -13.076 9.22053 19.9999 0 0 0
79 1 -13.6781 10.6114 19.9999 0 0 0
80 1 -13.0646 11.9529 19.9999 0 0 0
88 1 -11.5395 6.7281 19.9999 0 0 0
89 1 -11.5535 9.18478 19.9999 0 0 0
90 1 -11.7099 11.6077 19.9999 0 0 0
99 1 -10.9389 8.06853 19.8934 0.00475996 0.0049871 -0.00514227
100 1 -10.9027 10.4758 19.9999 0 0 0
116 1 -8.91337 6.83876 19.4492 0.00558653 -0.018446 -0.0019353
117 1 -9.57157 8.07599 19.4199 0.00538484 -0.00864951 -0.0153457
118 1 -8.87188 9.21948 19.9156 -0.0179137 -0.0100727 -0.0123735
119 1 -9.37207 10.4804 19.9999 0 0 0
120 1 -8.62688 11.6228 19.9999 0 0 0
130 1 -7.38724 11.6024 19.9999 0 0 0
128 1 -7.391 6.79625 19.6272 -0.0239217 -0.0231276 -0.000388872
129 1 -7.3999 9.25077 20.0914 -0.00676295 -0.0105361 0.00402328
139 1 -6.73149 8.09036 19.7323 0.0194024 -0.00558192 0.0263179
140 1 -6.60892 10.469 19.9999 0 0 0
158 1 -4.47243 9.21221 19.8624 -0.0212637 -0.0153127 0.0236294
159 1 -5.14663 10.4689 19.9999 0 0 0
160 1 -4.36691 11.6023 19.9999 0 0 0
169 1 -3.06328 9.16183 19.8869 0.0030035 0.000444046 0.0108394
170 1 -3.12269 11.6018 19.9999 0 0 0
180 1 -2.34103 10.4689 19.9999 0 0 0
198 1 -0.112699 9.11609 20.1833 -0.0284199 -0.0115311 -0.0115009
199 1 -0.876963 10.4688 19.9999 0 0 0
200 1 -0.0953724 11.6018 19.9999 0 0 0
197 1 -0.978969 7.97763 20.2786 0.0111942 -0.00985529 -0.0155619
179 1 -2.32883 7.88212 19.6606 0.00194391 -0.00126959 -0.0116386
157 1 -5.33234 8.0363 19.732 0.0105906 -0.0206243 -0.00461273
156 1 -4.75576 6.74303 19.6426 -0.00134874 -0.0143349 -0.00768361
168 1 -3.37656 6.69168 19.658 -0.000839805 -0.00647315 -0.025553
196 1 -0.38693 6.71109 20.948 0.00381846 -0.00424804 -0.0129851
209 1 1.3855 9.09604 20.1118 0.00526687 -0.00396458 -0.00294217
210 1 1.14924 11.6018 19.9999 0 0 0
220 1 1.93091 10.4688 19.9999 0 0 0
238 1 4.20834 9.14378 20.3577 -0.00941356 -0.00153754 0.00333386
239 1 3.39506 10.4687 19.9999 0 0 0
240 1 4.17656 11.6018 19.9999 0 0 0
249 1 5.60678 9.08386 20.2609 -0.00226736 -0.0169572 -0.00743743
250 1 5.4212 11.6017 19.9999 0 0 0
259 1 6.28699 7.96085 19.7783 -0.00592395 -0.00157004 -0.00601622
260 1 6.20335 10.4685 19.9999 0 0 0
237 1 3.61504 7.82984 20.1521 -0.01048 -0.00386131 -0.00467022
219 1 2.10279 7.83183 20.0562 -0.00910209 0.00689486 0.00949816
248 1 5.56996 6.80541 19.6861 -0.0187577 -0.00625455 0.0147815
236 1 4.18613 6.63781 20.1835 -0.014642 -0.0141074 -0.00280463
208 1 1.09984 7.02088 20.682 -0.0237251 0.00794502 -0.00287849
277 1 7.71065 7.96996 20.0901 0.003424 -0.00145169 0.00650997
278 1 8.33953 9.2167 20.1539 0.00510687 -0.0107837 0.00131253
279 1 7.66711 10.4687 19.9999 0 0 0
280 1 8.44529 11.6024 19.9999 0 0 0
288 1 9.76459 6.75514 19.8086 -0.0168776 -0.0336891 0.00498691
289 1 9.73243 9.22636 20.0822 0.00306262 0.00606761 -0.0212195
290 1 9.6873 11.6101 19.9999 0 0 0
299 1 10.4137 8.03608 19.7865 0.00236538 0.000949993 0.01269
300 1 10.4752 10.4755 19.9999 0 0 0
316 1 12.6473 6.74288 19.9999 0 0 0
317 1 11.9051 7.97805 19.9999 0 0 0
318 1 12.6583 9.19198 19.9999 0 0 0
319 1 11.9246 10.4937 19.9999 0 0 0
320 1 12.7709 11.5297 19.9999 0 0 0
328 1 14.0456 6.75188 19.9999 0 0 0
329 1 14.0237 9.17042 19.9999 0 0 0
330 1 13.9415 11.792 19.9999 0 0 0
276 1 8.34688 6.72917 19.9058 -0.0203498 -0.0136792 0.00766676
186 1 -0.973545 -7.50068 22.5665 0.0176743 0.00421084 -0.0080707
187 1 -1.91876 -6.59721 23.3032 -0.0212471 0.00749224 -0.0162075
20 1 -3.5197 -1.23244 26.5195 0.00840064 -0.00624571 -0.00139403
60 1 -4.17834 -1.14666 25.5467 -0.0289459 0.0157624 0.0117767
148 1 -4.52987 -0.736762 23.3179 0.00192668 -0.000361502 0.0514036
164 1 -4.33194 -0.327564 24.5157 -0.0133365 0.0201469 -0.0467453
174 1 -3.0033 -5.73666 22.5955 0.0210725 -0.0160708 -0.0169452
230 1 3.24799 -3.58029 22.9744 -0.000561295 -0.0463657 -0.0201833
231 1 3.35039 -2.53027 24.1534 -0.0228803 -0.0215254 -0.0234401
232 1 3.24758 -1.64276 25.0146 0.00161885 -0.0278082 -0.0421379
2 1 3.52787 -1.30229 26.1258 -0.0186481 0.0032708 -0.0471677
177 1 -4.5581 4.73118 22.5047 0.00678381 0.024203 -0.0155534
193 1 -3.80812 4.45273 23.7236 0.0109946 -0.0116366 -0.0137805
194 1 -2.63675 5.69151 23.3585 -0.00967211 -0.0078281 -0.0142119
217 1 7.29623 5.08239 22.5331 0.00735812 0.0134492 -0.0217824
218 1 5.22314 6.31152 22.4167 -0.0370538 0.00799685 -0.0294938
207 1 6.49165 6.33787 23.0678 0.019013 -0.0324651 -0.0302506
8 1 -1.08818 -0.948864 28.5477 0.00641603 -0.00163988 0.0281254
28 1 -1.57127 -2.36177 28.4068 0.025797 -0.000898068 0.017579
44 1 -2.80892 -2.27117 28.9557 0.0184255 0.0101838 0.0511025
52 1 -0.645993 -2.9621 29.5688 0.0056211 0.0221612 -0.00208732
27 1 -2.07383 -0.140515 29.2806 -0.00934411 -0.019396 0.0387873
42 1 -2.42874 -1.12143 30.3228 -0.0109021 -0.00916638 0.0185167
36 1 -0.46873 -4.09879 30.1742 0.00407854 0.00510465 0.0332429
3 1 -1.38032 -1.14504 32.9727 -0.00531254 0.021474 0.012853
18 1 -2.1351 -0.858695 31.5884 -0.0066038 0.0208907 0.028206
4 1 -0.961839 -2.12238 33.881 0.0365066 -0.0544276 -0.0274014
7 1 0.27552 -0.646065 28.3576 0.0534377 -0.0220248 0.0189023
26 1 1.38317 -1.23386 29.2749 -0.00143084 0.0168766 0.0267226
40 1 2.69627 -0.547831 29.356 0.00705243 -0.00388285 -0.00933481
50 1 0.861555 -2.5044 29.7358 0.00808223 0.0152243 0.0366991
16 1 4.28648 -2.89973 30.7958 -0.0179787 -0.0232969 0.0168956
35 1 1.50918 -3.62921 30.686 -0.0230504 0.0303867 0.0193584
59 1 3.0087 -3.20393 31.3411 -0.0237951 0.020885 0.00550245
12 1 0.693803 -4.39282 31.5863 -0.0209239 0.0243711 0.0123382
15 1 4.0994 -1.39215 31.737 -0.00578535 0.0165405 -0.0107475
57 1 3.21994 -2.33786 32.8502 -0.00290526 0.0382248 0.0193322
33 1 4.39254 -2.92892 33.6803 0.00216983 -0.021446 0.0243505
204 1 5.64063 -3.46946 33.3276 -0.000946823 -0.024125 0.0335596
22 1 5.56832 -1.07768 33.2154 0.0109605 -0.00814746 0.0261692
39 1 5.06092 -0.287622 32.0874 0.0535105 0.00595839 -0.00465563
49 1 0.0750063 1.4757 29.0099 -0.00699793 0.0167182 0.0345384
51 1 -1.42776 1.04213 29.5311 0.026862 0.00381462 0.0192173
32 1 -1.22927 1.61504 30.8199 -0.0237572 -0.0396422 0.036658
56 1 -2.05052 0.781159 31.6634 0.061644 0.0157265 0.0267628
54 1 -1.03481 1.91333 33.813 0.00404733 0.00659123 0.0242882
17 1 -1.51871 0.879731 32.9081 -0.0123195 -0.0259175 0.0179805
10 1 -0.0123199 2.34529 31.2004 -0.0143174 -0.0330365 -0.0142618
38 1 2.28622 0.699907 28.5494 -0.0110875 -0.000334214 0.0282503
25 1 0.901928 0.521094 28.3548 -0.0103318 0.0190919 0.0411231
30 1 0.37925 2.07625 33.8447 -0.0114756 -0.0198616 0.030316
14 1 2.59846 1.86073 28.7853 -0.0046218 0.0124531 0.0350462
31 1 0.630155 2.24926 30.1025 0.00470841 0.00782891 0.0279476
55 1 1.98496 2.46525 29.9926 -0.028048 -0.00251506 0.0284462
1 1 4.0121 2.00955 29.1037 0.0343296 0.0274717 -0.00299692
53 1 2.77491 2.47665 30.9866 -0.0269737 0.00578186 0.04552
13 1 4.20741 1.91021 30.6957 -0.0356394 0.0113774 -0.00111519
9 1 0.706499 2.15577 32.342 0.0225037 -0.00683618 0.0416591
29 1 2.01904 2.18175 32.0124 -0.0029723 0.000337892 -0.00353802
45 1 2.83999 2.21146 33.1541 0.00156262 -0.0364759 0.0484165
37 1 4.71736 1.14521 31.7354 -0.0296256 0.0113924 0.0288368
21 1 4.08865 1.46286 33.2308 0.0183792 -0.0226219 0.030319
19 1 -0.357484 -1.73138 35.0299 -0.0193402 -0.0393222 -0.00481036
215 1 6.90297 -2.94675 34.126 0.0442638 -0.00834424 0.0303854
216 1 6.61399 -0.450644 34.0963 0.0231728 0.00740834 0.0188559
46 1 4.60808 -1.65637 34.3984 0.0198947 -0.0396789 0.0224412
188 1 6.44371 -4.22151 34.3042 -0.0161335 0.0045201 -0.0119937
11 1 2.73952 -2.89288 36.3722 -0.00176084 0.0155123 0.0667456
205 1 7.52927 -1.48059 34.6951 0.00869836 -0.00601092 0.00417993
58 1 0.56386 -2.15778 35.9725 0.00070453 -0.0081063 0.0277827
34 1 2.17802 -1.91939 35.7632 0.0170518 -0.0403816 0.0708483
48 1 3.65295 -1.1601 35.2436 0.0198056 -0.0147739 0.00477818
189 1 7.47125 -2.09738 36.296 -0.00177847 -0.0159289 0.0192805
165 1 5.68619 -0.633889 37.3959 0.00545575 -0.0139437 0.0276787
175 1 6.63085 -1.81129 37.5888 0.00267866 0.000861101 0.0283016
24 1 3.31675 -0.0490775 36.0172 0.0177161 0.00493654 0.0032276
190 1 8.27862 -0.912306 35.8866 0.0294538 0.013892 0.0197276
47 1 1.68822 2.4943 34.2355 0.0050169 0.013328 0.0481467
5 1 4.82221 1.8345 34.1821 0.00765912 0.00289223 0.0124369
206 1 5.82 0.957998 34.4709 0.020832 -0.00654036 0.0313137
23 1 2.02117 1.70962 35.5257 0.0125933 -0.00995209 0.030164
6 1 2.7584 0.610553 34.7512 -0.0199487 -0.0297428 0.0349958
41 1 4.38954 1.21744 37.6244 0.00501017 -0.0158696 0.0152979
192 1 7.12558 1.18254 35.2147 0.00427832 -0.00933846 -0.00948256
43 1 3.20691 1.24105 38.2337 0.0273808 9.95058e-05 0.0227867
176 1 6.56631 0.517912 37.1283 0.0254088 0.025925 0.01509
166 1 5.83484 1.66659 37.6594 0.0234124 -0.0172853 -0.00465051
191 1 7.83326 0.446676 36.4159 0.0385863 0.0258776 0.0174504
