ITEM: TIMESTEP
47700
ITEM: NUMBER OF ATOMS
330
ITEM: BOX BOUNDS pp pp pp
-1.4715758017245314e+01 1.5057610017245315e+01
-1.2710055654020760e+01 1.2664508654020761e+01
-5.0001035148846022e+01 1.0000103514884636e+02
ITEM: ATOMS id type x y z vx vy vz
61 1 -13.6674 -11.9461 19.9999 0 0 0
62 1 -13.1228 -10.6724 19.9999 0 0 0
63 1 -13.7825 -9.34696 19.9999 0 0 0
64 1 -13.0772 -8.00396 19.9999 0 0 0
65 1 -13.7542 -6.79742 19.9999 0 0 0
81 1 -11.507 -10.5408 19.9999 0 0 0
82 1 -11.5331 -8.01671 19.9999 0 0 0
91 1 -10.7591 -11.6424 19.9999 0 0 0
92 1 -10.6905 -9.23433 19.9604 0.00940662 0.0164985 0.0314884
93 1 -10.7005 -6.82739 19.95 -0.0019847 0.0027566 -0.022899
101 1 -9.52473 -11.6468 19.9999 0 0 0
102 1 -8.74136 -10.5124 19.9999 0 0 0
103 1 -9.28902 -9.18459 20.1484 0.00934798 0.000993736 0.012106
104 1 -8.55542 -8.17971 19.9249 0.0189463 0.0201156 -0.00895618
105 1 -9.26865 -6.90624 20.043 -0.00607957 0.00923827 -0.00158671
121 1 -7.27873 -10.5146 19.9999 0 0 0
122 1 -7.20349 -8.05957 20.1836 -0.00600637 -0.00799947 0.0247234
131 1 -6.50232 -11.6488 19.9999 0 0 0
132 1 -6.57806 -9.13151 20.2038 0.00622835 -0.00182791 -0.00128225
141 1 -5.25854 -11.6473 19.9999 0 0 0
142 1 -4.47674 -10.5145 19.9999 0 0 0
143 1 -5.1747 -9.17663 20.1333 -0.0173122 0.0307996 0.00386997
161 1 -3.01281 -10.5144 19.9999 0 0 0
171 1 -2.23133 -11.6474 19.9999 0 0 0
172 1 -2.38332 -9.36086 19.8563 0.000771683 -0.0182014 0.0028896
181 1 -0.986751 -11.6474 19.9999 0 0 0
182 1 -0.205108 -10.5143 19.9999 0 0 0
183 1 -1.09818 -9.37484 20.0788 0.0207508 -0.00740485 -0.00797373
162 1 -3.13375 -8.14651 19.7038 0.00919261 -0.000545184 0.0223685
144 1 -4.49834 -8.02189 19.9102 0.00479014 -0.0314209 0.0243826
133 1 -6.49974 -6.79667 20.2044 0.00214711 -0.018745 -0.00215645
145 1 -5.10852 -6.75138 20.0722 -0.0129613 -0.0084102 0.00376723
173 1 -2.35881 -7.28349 20.6004 -0.00517655 -0.0301921 0.0129485
184 1 -0.254422 -8.34608 20.4935 -0.0217974 0.0171845 -0.0151382
185 1 -1.10263 -7.29576 21.1053 0.0252612 -0.00867498 0.00261783
201 1 1.25901 -10.5143 19.9999 0 0 0
211 1 2.0406 -11.6474 19.9999 0 0 0
212 1 2.12458 -9.35334 20.0818 0.0183146 -0.00841644 0.000163659
221 1 3.28523 -11.6473 19.9999 0 0 0
222 1 4.06705 -10.5143 19.9999 0 0 0
223 1 3.51509 -9.28305 20.1169 0.012016 -0.00582095 0.0206136
224 1 4.1248 -8.0223 19.9382 -0.0165214 0.00167057 0.0109839
241 1 5.53108 -10.5143 19.9999 0 0 0
242 1 5.5396 -7.99471 20.0525 -0.00409695 -0.0189989 0.0042508
251 1 6.31174 -11.6474 19.9999 0 0 0
252 1 6.21371 -9.1846 20.1724 0.00468536 -0.0109394 -0.00220259
261 1 7.55524 -11.6498 19.9999 0 0 0
202 1 1.24748 -8.08623 19.9006 0.00907652 0.0250934 -0.0135529
225 1 3.43057 -6.95448 19.9934 0.0162646 -0.0235023 0.00401157
213 1 2.01484 -7.04532 20.246 -0.0117404 -0.0110525 0.0104324
253 1 6.26803 -6.93013 20.6278 0.00278356 0.0065575 0.0114123
263 1 7.7002 -9.22701 20.2132 0.0174727 0.0161891 0.0022395
265 1 7.59635 -6.93644 20.6619 0.00151513 -0.00664156 -0.0172706
262 1 8.33779 -10.5154 19.9999 0 0 0
264 1 8.4163 -8.04255 20.7514 0.01837 0.021262 0.0260213
281 1 9.79556 -10.5245 19.9999 0 0 0
282 1 9.77731 -8.1414 20.584 0.00505911 -0.00867174 0.0271414
291 1 10.5816 -11.6418 19.9999 0 0 0
292 1 10.5736 -9.33173 20.3503 -0.0026833 -0.001304 0.0155865
293 1 10.4732 -6.87517 20.3607 0.0125474 0.00393681 -0.01966
301 1 11.8019 -11.7522 19.9999 0 0 0
302 1 12.7161 -10.5156 19.9999 0 0 0
303 1 11.8934 -9.22642 19.9999 0 0 0
304 1 12.655 -8.00627 19.9999 0 0 0
305 1 11.8992 -6.77596 19.9999 0 0 0
321 1 14.087 -10.4984 19.9999 0 0 0
322 1 14.0714 -8.01298 19.9999 0 0 0
66 1 -13.0658 -5.54976 19.9999 0 0 0
67 1 -13.7179 -4.30197 19.9999 0 0 0
68 1 -13.0406 -3.0891 19.9999 0 0 0
69 1 -13.6883 -1.86008 19.9999 0 0 0
70 1 -13.0424 -0.636745 19.9999 0 0 0
83 1 -11.5387 -5.54743 19.9999 0 0 0
84 1 -11.5566 -3.09089 19.9999 0 0 0
85 1 -11.5625 -0.637245 19.9999 0 0 0
94 1 -10.7839 -4.3648 20.1057 -0.000982264 0.0180414 -0.0128636
95 1 -10.782 -1.87747 20.098 -0.00882852 0.00786743 0.00342424
106 1 -8.63768 -5.50831 20.2031 0.00519339 -0.00225643 0.00771837
107 1 -9.17417 -4.15524 20.2234 0.00815916 0.0230849 0.0321971
109 1 -9.21165 -1.82117 19.909 0.00187714 0.00459969 -0.00959633
110 1 -8.7178 -0.821925 19.1142 0.00188479 -0.00499205 -0.0171129
108 1 -8.27436 -3.0552 20.063 0.013204 0.0350483 -0.0171476
124 1 -6.7701 -2.6874 20.0258 0.000112488 0.034623 0.00230209
125 1 -7.15895 -0.734868 18.9144 0.00433217 -0.010004 -0.0436039
123 1 -7.10187 -5.43287 20.2625 -0.00420272 0.0146775 0.0288928
146 1 -4.28079 -5.64344 20.441 0.0176365 -0.0177687 -0.0177723
134 1 -6.33851 -4.20337 20.5097 0.00100172 0.041984 0.00869837
147 1 -4.97648 -4.37235 20.6446 0.0125989 -0.022644 -0.00598245
135 1 -6.12301 -1.57223 19.5537 -0.00968637 -0.00669063 -0.0077836
163 1 -2.9383 -6.02615 20.8117 0.00693983 0.0156354 -0.0403529
149 1 -4.46836 -0.576251 21.7144 -0.0195825 -0.00117847 0.00482715
150 1 -5.20599 -0.506865 20.6726 -0.00553414 0.00614755 0.00215161
226 1 4.15307 -5.58963 19.517 0.00791276 -0.0188127 -0.0168662
243 1 5.42613 -5.78147 20.3741 0.0255649 0.0226412 0.0164463
254 1 6.42166 -4.69708 20.3797 -0.027316 0.00411434 0.026897
203 1 1.31843 -5.86565 21.0237 0.0129951 0.00297155 -0.0231511
244 1 5.69077 -3.35555 20.412 0.00228186 0.00491128 0.011865
227 1 3.31245 -4.51631 19.5056 0.0342494 0.00965921 -0.0193954
214 1 1.95618 -4.68485 20.4503 0.00671854 -0.000258901 -0.0332175
255 1 6.22627 -2.54191 19.3066 -0.0247666 0.0297262 0.00454764
228 1 4.18333 -3.47253 20.147 0.0279553 0.00189181 0.00203269
245 1 5.83371 -1.15866 18.6575 0.0124968 -0.0246382 -0.0573863
229 1 3.14315 -3.44503 21.4592 -0.00294697 -0.0331794 -0.0397442
269 1 7.683 -2.27103 19.3667 0.00769669 -0.00183609 -0.0483726
267 1 7.83048 -4.50977 20.4424 0.00976598 0.0139878 -0.0144459
283 1 9.8832 -5.51116 20.2446 0.00524174 0.00746936 0.00574976
284 1 9.73669 -2.91535 20.0595 -0.00949897 0.0026656 0.00812392
285 1 9.74041 -0.703714 19.4803 0.018792 -0.0195633 -0.00525822
294 1 10.5299 -4.11542 20.1038 0.0223499 -0.00255231 -0.0158435
295 1 10.4785 -1.83628 19.8446 -0.0123563 0.000639103 0.00192462
306 1 12.6496 -5.55341 19.9999 0 0 0
307 1 11.9041 -4.32686 19.9999 0 0 0
308 1 12.647 -3.09734 19.9999 0 0 0
309 1 11.9037 -1.86828 19.9999 0 0 0
310 1 12.6457 -0.637745 19.9999 0 0 0
323 1 14.0539 -5.56516 19.9999 0 0 0
324 1 14.0472 -3.10129 19.9999 0 0 0
325 1 14.0438 -0.638188 19.9999 0 0 0
268 1 8.37118 -3.2153 20.1288 -0.00056041 0.0241651 -0.023272
270 1 8.3727 -1.01092 19.0986 0.00406564 0.0141878 -0.0171256
266 1 8.42545 -5.72422 20.4636 0.00184012 -0.00335562 -0.00777765
71 1 -13.6826 0.591886 19.9999 0 0 0
72 1 -13.0424 1.82079 19.9999 0 0 0
73 1 -13.6895 3.04359 19.9999 0 0 0
74 1 -13.0413 4.27397 19.9999 0 0 0
75 1 -13.7195 5.48914 19.9999 0 0 0
86 1 -11.5623 1.82169 19.9999 0 0 0
87 1 -11.5564 4.27485 19.9999 0 0 0
96 1 -11.0371 0.513397 19.5446 -0.0169783 0.00561078 -0.0192324
97 1 -10.7067 2.97494 20.0029 -0.00973076 -0.0105888 -0.0103589
98 1 -10.858 5.39635 19.9181 0.00603066 -0.00607082 -0.00678656
111 1 -9.5757 0.382147 19.0795 -0.0180185 -0.00443617 -0.0137116
113 1 -9.22802 2.67485 19.8068 -0.0167975 -0.0120884 0.00556381
115 1 -9.49573 5.32079 19.8385 0.0248305 -0.0472536 -0.00864306
112 1 -8.77668 1.44721 18.9912 0.0143658 -0.0190247 0.00382018
114 1 -8.63552 4.01236 19.6619 0.0072317 -0.019615 0.021179
126 1 -7.28529 1.49754 18.4604 0.00153917 -0.00805582 -0.0184284
127 1 -7.406 4.13602 19.0514 -0.00771773 0.00911717 0.00161105
138 1 -6.68729 5.44593 19.154 -0.0145924 -0.00299897 -0.0159612
155 1 -5.39839 5.25613 19.2429 -0.00256815 0.0109307 -0.00149613
137 1 -6.66768 2.70417 18.9619 0.0256928 0.00752957 -0.0307753
154 1 -4.75756 4.00822 19.6519 0.0209079 0.00656527 -0.0442779
153 1 -5.2971 2.7645 18.9232 0.011322 -0.0253339 -0.0164179
136 1 -6.46398 0.34524 18.4153 -0.0230479 -0.00294275 0.00657373
151 1 -5.04802 0.278398 19.3196 -0.0319063 0.0311138 -0.00929898
152 1 -4.64221 1.51596 19.1174 0.00943623 -0.00916711 -0.00827809
167 1 -4.05444 4.28599 20.9554 0.00733931 -0.0101491 -0.0378419
178 1 -3.23275 5.37155 20.3911 -0.00259203 -0.0109785 -0.0264136
195 1 -2.72105 5.7592 21.7549 -0.00551089 -0.0299328 -0.0431411
258 1 6.23255 5.57897 19.6737 -0.0174501 -0.0152627 -0.00621479
247 1 5.58262 4.18182 19.7921 -0.00613189 0.00148 -0.0161277
257 1 6.32288 2.76044 19.8717 0.00386015 -0.0224528 -0.0128658
246 1 5.87604 1.41638 19.5874 0.0105094 0.000243403 -0.0345346
256 1 6.32402 -0.0105467 19.3293 0.0243109 -0.00675435 -0.0402013
234 1 4.96198 4.42452 20.9926 0.0336949 -0.0121289 -0.0316739
235 1 4.29588 5.73001 21.2027 -0.0371967 0.0049995 1.68565e-05
275 1 7.73204 5.27792 19.8329 0.0135849 -0.00860419 -0.00862526
233 1 6.14108 4.2092 21.7644 -0.0147287 -0.00821753 -0.002348
271 1 7.81897 0.189498 19.4008 0.0101757 -0.0110955 -0.0321272
273 1 7.79509 2.73159 19.9166 0.0100202 -0.00578873 -0.0198262
286 1 9.85195 1.68479 19.6279 -0.0106272 0.00259531 -0.0246421
287 1 9.77149 4.10361 20.0674 -0.0141956 -0.0146403 -0.0137165
296 1 10.4606 0.492731 19.8583 -0.00782869 0.0032473 0.00913631
297 1 10.4087 3.03937 19.8326 -0.0231702 0.0116325 -0.00518378
298 1 10.4724 5.46399 19.9747 -0.0134117 -0.0353408 -0.00722593
311 1 11.9034 0.592385 19.9999 0 0 0
312 1 12.6457 1.82255 19.9999 0 0 0
313 1 11.9038 3.05326 19.9999 0 0 0
314 1 12.6466 4.28301 19.9999 0 0 0
315 1 11.9041 5.51379 19.9999 0 0 0
326 1 14.0439 1.82305 19.9999 0 0 0
327 1 14.0468 4.28589 19.9999 0 0 0
274 1 8.36662 3.98453 20.2121 -0.0012805 -0.0134185 -0.00994983
272 1 8.41558 1.36278 19.8065 -0.00446492 -0.0180282 -0.00751187
76 1 -13.0678 6.73987 19.9999 0 0 0
77 1 -13.743 7.99662 19.9999 0 0 0
78 1 -13.076 9.22053 19.9999 0 0 0
79 1 -13.6781 10.6114 19.9999 0 0 0
80 1 -13.0646 11.9529 19.9999 0 0 0
88 1 -11.5395 6.7281 19.9999 0 0 0
89 1 -11.5535 9.18478 19.9999 0 0 0
90 1 -11.7099 11.6077 19.9999 0 0 0
99 1 -10.8694 7.97892 19.833 0.0131754 -0.0264995 -0.0115164
100 1 -10.9027 10.4758 19.9999 0 0 0
116 1 -8.84652 6.64295 19.4729 -0.00143346 -0.0314063 0.00791754
117 1 -9.55737 8.02969 19.3658 0.00296114 -0.0152942 -0.000370969
118 1 -8.87557 9.13589 19.8264 0.0107644 -0.0111684 -0.0129632
119 1 -9.37207 10.4804 19.9999 0 0 0
120 1 -8.62688 11.6228 19.9999 0 0 0
130 1 -7.38724 11.6024 19.9999 0 0 0
128 1 -7.50768 6.64168 19.5876 0.00251712 -0.0154508 -0.00868108
129 1 -7.46687 9.17812 20.0791 -0.0017087 -0.0140667 -0.00694189
139 1 -6.71792 7.96891 19.9143 -0.0179037 -0.026431 0.0240278
140 1 -6.60892 10.469 19.9999 0 0 0
158 1 -4.53803 9.11796 20.0273 0.0091832 -0.0090541 0.0225993
159 1 -5.14663 10.4689 19.9999 0 0 0
160 1 -4.36691 11.6023 19.9999 0 0 0
169 1 -3.04311 9.09841 19.9355 -0.00488365 -0.0112798 0.00460079
170 1 -3.12269 11.6018 19.9999 0 0 0
180 1 -2.34103 10.4689 19.9999 0 0 0
198 1 -0.218197 9.11032 20.0856 -0.00217767 0.00691074 -0.0154544
199 1 -0.876963 10.4688 19.9999 0 0 0
200 1 -0.0953724 11.6018 19.9999 0 0 0
197 1 -0.990756 7.93451 20.1135 -0.0142968 -0.00271192 -0.0305453
179 1 -2.42038 7.87964 19.6359 -0.0202721 -0.00255371 0.00347251
157 1 -5.25437 7.91518 19.6982 0.00665289 -0.0163549 -0.0043941
156 1 -4.73666 6.53423 19.5423 0.0107683 -0.0316765 -0.0212585
168 1 -3.27729 6.63403 19.5584 0.0165293 -0.0119167 -0.00531709
196 1 -0.390361 6.61257 20.8914 -0.00715536 -0.0221293 -0.00403612
209 1 1.29599 9.1209 20.08 -0.0277774 0.00921486 -0.00559684
210 1 1.14924 11.6018 19.9999 0 0 0
220 1 1.93091 10.4688 19.9999 0 0 0
238 1 4.11709 9.12039 20.3215 -0.0130207 0.000927014 -0.0120401
239 1 3.39506 10.4687 19.9999 0 0 0
240 1 4.17656 11.6018 19.9999 0 0 0
249 1 5.52839 9.09066 20.1998 -0.0157359 0.015202 -0.0108328
250 1 5.4212 11.6017 19.9999 0 0 0
259 1 6.28791 7.94001 19.7624 0.001266 -0.00422768 0.00252256
260 1 6.20335 10.4685 19.9999 0 0 0
237 1 3.50066 7.87175 20.1467 -0.0176079 0.00628453 0.00172223
219 1 2.07464 7.93728 20.1207 -0.00956588 0.0184646 0.0107118
248 1 5.40617 6.7291 19.781 -0.0165211 -0.0132194 0.00983053
236 1 4.16334 6.58498 20.0957 -0.00158674 -0.000501957 -0.0167889
208 1 0.982587 7.00925 20.6755 -0.00314212 -0.00569587 -0.00193176
277 1 7.68443 7.93329 20.1009 -0.0120769 -0.00619097 -0.00281882
278 1 8.3784 9.15524 20.153 0.00529577 -0.00480243 -0.00247718
279 1 7.66711 10.4687 19.9999 0 0 0
280 1 8.44529 11.6024 19.9999 0 0 0
288 1 9.66761 6.63216 19.8557 -0.00322981 -0.000409669 0.00950404
289 1 9.7781 9.22889 19.925 0.00913269 -0.00997466 -0.0222248
290 1 9.6873 11.6101 19.9999 0 0 0
299 1 10.4961 7.97632 19.9066 0.0124971 -0.0199401 0.0196539
300 1 10.4752 10.4755 19.9999 0 0 0
316 1 12.6473 6.74288 19.9999 0 0 0
317 1 11.9051 7.97805 19.9999 0 0 0
318 1 12.6583 9.19198 19.9999 0 0 0
319 1 11.9246 10.4937 19.9999 0 0 0
320 1 12.7709 11.5297 19.9999 0 0 0
328 1 14.0456 6.75188 19.9999 0 0 0
329 1 14.0237 9.17042 19.9999 0 0 0
330 1 13.9415 11.792 19.9999 0 0 0
276 1 8.22657 6.58589 19.9603 -0.00694081 -0.0224241 0.00750539
186 1 -0.878866 -7.43249 22.5296 0.0191331 0.0071019 -0.0130095
187 1 -2.00057 -6.59831 23.2329 -0.00634846 -0.00460084 0.00266595
20 1 -3.47503 -1.29116 26.5248 0.00111565 -0.00948501 -0.000965535
60 1 -4.35676 -1.00507 25.6167 -0.0184591 0.0218018 0.0125331
148 1 -4.48802 -0.710736 23.454 0.00819925 0.00450049 -0.018883
164 1 -4.44434 -0.205983 24.2295 -0.0184035 0.0195767 -0.031091
174 1 -2.88175 -5.80245 22.4874 0.0057367 0.000662366 -0.037254
230 1 3.25101 -3.84123 22.8584 0.000701725 -0.0341779 -0.0179555
231 1 3.17072 -2.74219 23.905 -0.0248525 -0.0332608 -0.0409797
232 1 3.27166 -1.85306 24.7322 0.00374329 -0.0311541 -0.035121
2 1 3.3969 -1.25166 25.8202 -0.0191314 0.0101021 -0.0432375
177 1 -4.52857 4.83844 22.3917 -0.023362 0.00346782 -0.022894
193 1 -3.70314 4.4438 23.5801 0.0164495 -0.00450333 -0.0106921
194 1 -2.72689 5.60897 23.1958 0.00237124 -0.00439517 -0.011219
217 1 7.31742 5.05708 22.3129 0.00755937 -0.0230993 -0.0388899
218 1 5.06874 6.34758 22.2446 -0.0169348 0.010603 -0.0147846
207 1 6.42427 6.18516 22.8111 -0.0211769 -0.00531707 -0.02988
8 1 -0.987973 -0.935905 28.6867 0.0214416 0.00673249 0.011479
28 1 -1.38645 -2.33246 28.5171 0.0275658 0.0103746 0.0226402
44 1 -2.73894 -2.22409 29.3851 0.000775457 -0.0129442 0.0596474
52 1 -0.480655 -2.85308 29.6067 0.0385992 -0.00351094 0.0181877
27 1 -2.03904 -0.213377 29.4949 0.0331045 0.0113457 0.0188996
42 1 -2.5415 -1.22962 30.4199 -0.0205736 -0.0128565 0.0158471
36 1 -0.516293 -4.13849 30.4734 -0.0119364 0.000238679 0.0423716
3 1 -1.45701 -0.984097 33.0161 -0.0134047 0.0230078 0.0045232
18 1 -2.16822 -0.692351 31.8236 -0.00792335 0.00610613 0.0304039
4 1 -0.729467 -2.4379 33.6766 0.0245637 -0.0337313 -0.0393869
7 1 0.54497 -0.778389 28.4975 0.0111306 -0.00416296 0.0167856
26 1 1.32012 -1.20063 29.474 0.000104149 -0.00258268 0.0343268
40 1 2.80804 -0.555474 29.2878 0.0178996 0.00287709 -0.0113698
50 1 0.903002 -2.42574 30.0095 -0.00600049 0.00605318 0.0365869
16 1 4.10324 -2.9657 30.9764 -0.0268201 0.00302775 0.0282334
35 1 1.49101 -3.34456 30.884 0.0173287 0.0511129 0.0269867
59 1 2.83618 -3.02745 31.4533 -0.0261652 0.0218176 0.0268699
12 1 0.493352 -4.18731 31.5411 -0.0459302 0.0236274 -0.0128652
15 1 4.07944 -1.35159 31.7271 0.0143466 0.0101867 0.00751097
57 1 3.30254 -2.11238 32.7736 0.0275757 0.0229989 -0.0206903
33 1 4.31651 -3.03325 33.8112 -0.0243725 -0.0119578 0.00241852
204 1 5.6491 -3.62234 33.5578 -0.017656 -0.00602661 0.0179898
22 1 5.65395 -1.06703 33.4697 0.000265291 0.00519585 0.0266827
39 1 5.30787 -0.316842 32.0255 0.00852798 -0.0112955 -0.00839048
49 1 -0.0618675 1.54791 29.273 -0.0182393 0.00892439 0.0318785
51 1 -1.16148 1.09772 29.6543 0.024344 -0.00435939 0.0216398
32 1 -1.32212 1.46317 30.9609 0.002084 0.00525226 -0.00592216
56 1 -1.69516 0.730809 31.8938 0.0358342 -0.0288644 0.0447793
54 1 -1.11177 1.89933 33.9811 -0.0125068 -0.0152075 0.0197903
17 1 -1.5769 0.731448 33.1885 0.00386974 -0.00323671 0.0780012
10 1 -0.153128 2.08471 31.2485 -0.0185793 -0.0376602 0.0340735
38 1 2.16208 0.626324 28.7113 -0.00928864 -0.0110743 0.0250389
25 1 0.814906 0.678868 28.6334 -0.0205433 0.016613 0.0334435
30 1 0.437622 1.97545 33.9738 0.00837147 -0.0115731 0.00647654
14 1 2.69012 2.06422 29.1052 0.013141 0.0279212 0.0354333
31 1 0.656152 2.3 30.1918 -0.00348537 0.0068062 0.00150529
55 1 1.84701 2.44955 30.0726 -0.00782662 0.00285284 0.00898853
1 1 4.17629 2.17374 29.1941 0.0193707 0.0212699 0.0189909
53 1 2.69463 2.52238 31.1673 -0.00633211 0.0116656 0.00364757
13 1 3.9113 1.99822 30.656 -0.0301211 0.00801459 0.0101394
9 1 0.741645 2.12031 32.5848 -0.0150996 -0.00445156 0.0231164
29 1 2.04518 2.15337 32.195 0.0103176 -0.00887003 0.0584271
45 1 2.74409 2.00945 33.5645 -0.0229389 -0.0237025 0.0560612
37 1 4.53709 1.16602 31.9236 -0.0160424 -0.0135529 0.0177052
21 1 4.11924 1.33543 33.3425 -0.011076 -0.0141533 0.00954519
19 1 -0.394722 -2.07064 35.0489 0.00857949 -0.0526636 0.0129585
215 1 7.19685 -3.01783 34.3164 0.040571 -0.00861742 0.0252194
216 1 6.71045 -0.53679 34.1273 0.0165256 -0.0172802 0.00390162
46 1 4.82589 -1.91702 34.4915 0.0345877 -0.0271288 0.0130399
188 1 6.38228 -4.18444 34.2491 0.0150755 -0.00685145 0.0112716
11 1 2.80909 -2.91543 36.9384 0.0187973 -0.0154831 0.0900213
205 1 7.57931 -1.526 34.784 0.00643379 -0.0102714 0.0219254
58 1 0.627378 -2.1557 36.106 0.021154 0.00620502 0.0151434
34 1 2.20322 -2.05191 36.1226 -0.00352236 -0.000503207 0.0319006
48 1 3.67991 -1.41422 35.3594 -0.0200417 -0.0349789 0.0380405
189 1 7.48821 -2.11664 36.4318 0.0192053 0.00917479 0.00618539
165 1 5.75641 -0.75788 37.5992 0.00212772 0.00330945 0.02823
175 1 6.64966 -1.81801 37.7363 0.0102222 -0.0162977 0.0263063
24 1 3.48943 -0.0468156 36.1275 0.0225666 -0.0133622 -0.00244156
190 1 8.39164 -0.83136 36.0279 0.00105058 -0.000612598 0.0196477
47 1 1.81451 2.48966 34.5477 0.0218449 -0.000216579 0.0308721
5 1 4.95318 1.84332 34.3585 0.0317023 -0.00162259 0.036922
206 1 5.969 0.921333 34.6814 0.0279363 -0.00291864 0.0302969
23 1 2.05575 1.74448 35.717 0.00673241 -0.00154102 0.0370286
6 1 2.56246 0.460453 34.9133 -0.0242669 -0.0201498 0.0372095
41 1 4.39268 1.13112 37.7732 0.0291784 -0.00759063 0.0137861
192 1 7.31523 1.23641 35.2083 0.0403119 0.0151061 0.0146205
43 1 3.39224 1.23284 38.3801 0.0055178 -0.000936274 0.0309494
176 1 6.80506 0.566895 37.3055 0.0329233 0.0022268 0.030454
166 1 5.96169 1.65504 37.6534 0.0111906 -0.00538523 -0.00261252
191 1 8.04642 0.592115 36.4354 0.0153417 0.0210831 -0.0105193
