ITEM: TIMESTEP
18100
ITEM: NUMBER OF ATOMS
330
ITEM: BOX BOUNDS pp pp pp
-1.4715758017245314e+01 1.5057610017245315e+01
-1.2710055654020760e+01 1.2664508654020761e+01
-5.0001035148846022e+01 1.0000103514884636e+02
ITEM: ATOMS id type x y z vx vy vz
61 1 -13.6674 -11.9461 19.9999 0 0 0
62 1 -13.1228 -10.6724 19.9999 0 0 0
63 1 -13.7825 -9.34696 19.9999 0 0 0
64 1 -13.0772 -8.00396 19.9999 0 0 0
65 1 -13.7542 -6.79742 19.9999 0 0 0
81 1 -11.507 -10.5408 19.9999 0 0 0
82 1 -11.5331 -8.01671 19.9999 0 0 0
91 1 -10.7591 -11.6424 19.9999 0 0 0
92 1 -10.7684 -9.23148 20.0025 -0.00426721 0.00694233 -0.0016013
93 1 -10.8009 -6.76717 19.9267 0.00482942 -0.00485714 -0.00540475
101 1 -9.52473 -11.6468 19.9999 0 0 0
102 1 -8.74136 -10.5124 19.9999 0 0 0
103 1 -9.3239 -9.1326 19.9632 -0.0127287 -0.017285 -0.00396654
104 1 -8.55568 -7.8763 19.8527 -0.0210515 0.000911324 -0.00670367
105 1 -9.19144 -6.60643 19.8006 -0.00238727 -0.00804133 -0.00564398
121 1 -7.27873 -10.5146 19.9999 0 0 0
122 1 -7.04471 -7.74786 19.8322 -0.0153579 0.0013882 0.00276595
131 1 -6.50232 -11.6488 19.9999 0 0 0
132 1 -6.57155 -9.08237 19.7875 -0.00413354 0.00146168 0.00416693
133 1 -6.31802 -6.53 20.4459 -0.014196 -0.0116226 0.033983
141 1 -5.25854 -11.6473 19.9999 0 0 0
142 1 -4.47674 -10.5145 19.9999 0 0 0
143 1 -5.12759 -9.06803 20.0944 -0.0029999 -0.00269973 0.0276253
144 1 -4.44905 -8.10888 20.9771 -0.0111662 -0.00729877 0.0436062
145 1 -5.1015 -6.80961 21.0302 -0.0237354 -0.0095764 0.0140551
161 1 -3.01281 -10.5144 19.9999 0 0 0
162 1 -2.93274 -8.0372 21.4394 -0.00561452 -0.0109366 0.0298397
171 1 -2.23133 -11.6474 19.9999 0 0 0
172 1 -2.30269 -9.27037 20.8631 -0.00787089 -0.0233484 0.0380231
181 1 -0.986751 -11.6474 19.9999 0 0 0
182 1 -0.205108 -10.5143 19.9999 0 0 0
183 1 -0.873683 -9.49514 21.0563 0.00472897 -0.0423671 0.0167513
201 1 1.25901 -10.5143 19.9999 0 0 0
202 1 1.19202 -8.52153 21.9478 -0.0049339 -0.0183032 0.0152481
211 1 2.0406 -11.6474 19.9999 0 0 0
212 1 1.80056 -9.40912 21.0073 0.00615188 -0.0178697 0.0182099
221 1 3.28523 -11.6473 19.9999 0 0 0
222 1 4.06705 -10.5143 19.9999 0 0 0
223 1 3.24728 -9.33893 20.8775 0.00971046 -0.037926 0.0347027
224 1 4.05287 -8.1907 21.2419 -0.00789538 -0.00958796 0.0316202
225 1 3.37081 -6.98845 21.8435 0.0182479 -0.00340747 0.013604
241 1 5.53108 -10.5143 19.9999 0 0 0
242 1 5.37809 -8.01717 20.5339 0.024416 -0.0156386 0.0418535
251 1 6.31174 -11.6474 19.9999 0 0 0
252 1 6.10393 -9.1099 19.8573 0.00536712 0.0107086 0.0151215
253 1 6.08513 -6.77708 20.5647 0.0194483 -0.0112914 0.0364265
261 1 7.55524 -11.6498 19.9999 0 0 0
263 1 7.53646 -9.20854 19.7419 0.0100942 0.0111301 -0.0079157
265 1 7.37628 -6.65907 19.9571 0.0179466 -0.00276526 0.0262014
262 1 8.33779 -10.5154 19.9999 0 0 0
264 1 8.16155 -7.90594 19.7344 0.00287413 0.00083054 -0.00615927
281 1 9.79556 -10.5245 19.9999 0 0 0
282 1 9.6154 -7.95517 19.8561 0.00831923 0.0106081 -0.00894841
291 1 10.5816 -11.6418 19.9999 0 0 0
292 1 10.4537 -9.13262 19.9862 0.00103657 -0.0144116 -0.00267871
293 1 10.4044 -6.68295 19.8333 -3.6826e-05 -0.00613225 -0.00425776
301 1 11.8019 -11.7522 19.9999 0 0 0
302 1 12.7161 -10.5156 19.9999 0 0 0
303 1 11.8934 -9.22642 19.9999 0 0 0
304 1 12.655 -8.00627 19.9999 0 0 0
305 1 11.8992 -6.77596 19.9999 0 0 0
321 1 14.087 -10.4984 19.9999 0 0 0
322 1 14.0714 -8.01298 19.9999 0 0 0
66 1 -13.0658 -5.54976 19.9999 0 0 0
67 1 -13.7179 -4.30197 19.9999 0 0 0
68 1 -13.0406 -3.0891 19.9999 0 0 0
69 1 -13.6883 -1.86008 19.9999 0 0 0
70 1 -13.0424 -0.636745 19.9999 0 0 0
83 1 -11.5387 -5.54743 19.9999 0 0 0
84 1 -11.5566 -3.09089 19.9999 0 0 0
85 1 -11.5625 -0.637245 19.9999 0 0 0
94 1 -10.7928 -4.33119 19.8573 -0.00158282 0.00198658 -0.000630098
95 1 -10.8398 -1.80582 19.8469 0.0079263 -0.00361757 0.00938015
106 1 -8.3612 -5.39739 19.8738 -0.0133381 0.0034215 0.0139523
107 1 -9.23668 -4.29267 19.7701 -0.00894727 0.0168581 0.0128369
108 1 -8.59642 -3.06154 20.3925 -0.0188934 -0.00955654 0.0281112
109 1 -9.23826 -1.7585 20.0834 -0.00211807 0.00568146 0.0453739
110 1 -8.61539 -0.647399 20.7075 0.00929721 -0.00734948 0.0237959
125 1 -7.54346 -0.649578 21.7057 0.0111881 0.00896861 0.00806785
124 1 -7.60539 -3.30893 21.4291 -0.0329269 0.0153509 0.0255447
123 1 -7.09286 -5.39419 20.652 -0.0437767 -0.0174247 0.0332758
8 1 -0.428302 -1.12637 20.2285 -0.00186844 -0.0147405 0.0148975
28 1 -1.45055 -1.95168 20.6644 0.00481365 -0.0291514 0.0431297
44 1 -2.54321 -1.29962 21.2496 0.00294586 -0.00101567 0.0314491
52 1 -0.624704 -3.18516 21.0838 -0.00117663 0.0248702 0.0266902
134 1 -6.74714 -4.37657 21.5471 -0.012532 -0.0100851 0.0328538
135 1 -7.01336 -1.98874 21.9471 0.00287705 0.00189464 0.0229312
146 1 -4.50048 -5.68432 21.9092 -0.0298083 0.00852857 0.0104016
7 1 1.0034 -1.42506 20.5597 0.0232786 -0.0130055 0.00402766
25 1 1.8087 -0.343209 20.6938 0.00993454 0.0146316 0.00434881
26 1 1.59932 -2.60254 19.9852 0.0182046 -0.0216481 0.0408652
38 1 2.98261 -0.533385 19.7731 0.0150243 0.0039327 0.0133608
40 1 3.08022 -1.92755 20.1546 -0.00864897 -0.000889288 0.050865
50 1 0.86277 -3.53358 21.0454 0.00590812 -0.0195982 0.0123539
16 1 3.23212 -2.18615 21.6314 0.0235897 0.0192544 0.0289304
243 1 5.60341 -5.79292 21.7126 0.02211 -0.0121941 0.0239398
254 1 6.36489 -4.51695 21.8162 0.0188959 -0.0201592 0.00570708
267 1 7.55355 -4.34959 20.9275 0.0220497 -0.011782 0.0335557
269 1 7.98531 -1.93041 21.6582 0.00253606 -0.0148332 0.0280342
266 1 8.07876 -5.39246 20.0957 0.0122538 0.0093603 0.0349729
268 1 8.45498 -3.10395 20.946 0.0210481 -0.0149007 0.0429067
270 1 8.78149 -0.597104 21.5009 0.0093017 -0.0115501 0.0363197
283 1 9.59419 -5.53079 19.7653 0.0191546 0.00295268 0.00265104
284 1 9.66722 -3.16524 20.1177 0.0170029 -0.00189738 0.0301265
285 1 9.91481 -0.523093 20.4402 -0.00155509 0.0103085 0.0371413
294 1 10.4959 -4.35462 19.862 0.00178893 0.0272965 0.0070898
295 1 10.4257 -1.90133 20.0499 0.0112793 0.0013271 0.0157954
306 1 12.6496 -5.55341 19.9999 0 0 0
307 1 11.9041 -4.32686 19.9999 0 0 0
308 1 12.647 -3.09734 19.9999 0 0 0
309 1 11.9037 -1.86828 19.9999 0 0 0
310 1 12.6457 -0.637745 19.9999 0 0 0
323 1 14.0539 -5.56516 19.9999 0 0 0
324 1 14.0472 -3.10129 19.9999 0 0 0
325 1 14.0438 -0.638188 19.9999 0 0 0
71 1 -13.6826 0.591886 19.9999 0 0 0
72 1 -13.0424 1.82079 19.9999 0 0 0
73 1 -13.6895 3.04359 19.9999 0 0 0
74 1 -13.0413 4.27397 19.9999 0 0 0
75 1 -13.7195 5.48914 19.9999 0 0 0
86 1 -11.5623 1.82169 19.9999 0 0 0
87 1 -11.5564 4.27485 19.9999 0 0 0
96 1 -10.7127 0.558817 19.8669 -0.00046395 0.00764812 0.0147231
97 1 -10.7928 2.95706 19.8516 0.0125722 0.00580591 0.00184895
98 1 -10.8105 5.45903 19.8952 -0.0145981 -0.00322096 -0.00393888
111 1 -9.26364 0.604741 20.2497 -0.0114314 -0.00137461 0.0338379
112 1 -8.67737 1.86455 20.5533 0.00404545 0.0169711 0.0237297
113 1 -9.2736 2.97346 19.8994 -0.0138183 -0.00300813 0.0181746
114 1 -8.43212 4.16036 20.1418 -0.00744708 -0.00196055 0.0355008
115 1 -9.24656 5.31682 19.7625 -0.0125072 -0.00386713 -0.00163146
126 1 -7.41109 2.00883 21.5671 0.000268735 -0.00584341 0.033808
42 1 -2.32944 0.124646 20.8169 -0.0183372 -0.00189256 0.0273192
27 1 -1.11965 0.0514724 20.393 -0.00702839 0.00543371 0.02419
127 1 -7.26622 4.2387 21.1979 -0.0209921 0.0343094 0.0318201
51 1 -0.225103 0.960589 21.0215 -0.0242941 0.0105571 0.0385099
32 1 -0.676304 2.31112 20.7506 0.00662853 -0.0113808 0.0348884
18 1 -2.64209 1.21294 21.4521 0.0144567 0.0131217 0.0473127
56 1 -1.8928 2.23231 21.4555 0.0135264 -0.00356979 0.0363555
137 1 -6.63462 3.19999 21.8984 -0.00734408 0.0219755 0.0166213
138 1 -6.56703 5.46877 21.0997 -0.0249818 0.0253482 0.0285586
155 1 -5.27286 5.7485 21.7228 -0.0268145 0.0075361 0.035966
10 1 0.544656 2.94756 21.0064 0.0184224 0.0221676 0.0695802
49 1 1.14761 0.859391 20.8578 -0.0035866 -0.0148263 -0.00122979
31 1 1.74297 2.17393 20.3245 -0.0138511 0.00180625 0.0164091
14 1 3.76083 0.612474 20.2586 -0.00365405 -0.0198132 0.0402127
55 1 3.0578 1.89581 20.4946 -0.00771373 -0.00595168 0.0492469
1 1 4.15652 0.235237 21.6243 0.01604 0.0167712 0.0290526
53 1 3.19581 2.31032 21.8985 -0.0120644 0.00934435 0.0601
258 1 6.27256 5.68719 21.4702 0.0256442 -0.00388194 0.0283503
275 1 7.47555 5.56643 20.6708 0.017697 0.00394449 0.0350584
273 1 7.60366 3.25568 21.6706 0.00204151 1.45609e-05 0.0155058
271 1 8.06013 0.598925 21.955 0.024322 0.00294493 0.0285701
272 1 8.52908 1.93504 21.5643 0.00829845 0.000526282 0.0360227
274 1 8.23316 4.34119 20.9211 0.0261736 -0.00135522 0.0381771
286 1 9.59861 2.00669 20.5475 0.000425069 -0.013401 0.0431581
287 1 9.50732 4.30509 20.1503 -0.00251627 0.00801467 0.030581
296 1 10.3991 0.808495 20.131 0.0212335 -0.00928922 0.0334188
297 1 10.4457 3.2302 20.0477 -0.00210307 -0.00454802 0.0224744
298 1 10.4944 5.42553 19.8939 0.00383037 -0.00115372 0.00459135
311 1 11.9034 0.592385 19.9999 0 0 0
312 1 12.6457 1.82255 19.9999 0 0 0
313 1 11.9038 3.05326 19.9999 0 0 0
314 1 12.6466 4.28301 19.9999 0 0 0
315 1 11.9041 5.51379 19.9999 0 0 0
326 1 14.0439 1.82305 19.9999 0 0 0
327 1 14.0468 4.28589 19.9999 0 0 0
76 1 -13.0678 6.73987 19.9999 0 0 0
77 1 -13.743 7.99662 19.9999 0 0 0
78 1 -13.076 9.22053 19.9999 0 0 0
79 1 -13.6781 10.6114 19.9999 0 0 0
80 1 -13.0646 11.9529 19.9999 0 0 0
88 1 -11.5395 6.7281 19.9999 0 0 0
89 1 -11.5535 9.18478 19.9999 0 0 0
90 1 -11.7099 11.6077 19.9999 0 0 0
99 1 -10.762 7.95012 19.9716 0.00202929 -0.00113846 -0.00353131
100 1 -10.9027 10.4758 19.9999 0 0 0
116 1 -8.49738 6.55229 19.8249 -0.00671156 0.00265939 -0.000904096
117 1 -9.33149 7.9024 19.8942 -0.0156327 -0.00895172 -0.0069271
118 1 -8.59817 9.1551 19.8814 -0.0216765 0.0144866 -0.00820818
119 1 -9.37207 10.4804 19.9999 0 0 0
120 1 -8.62688 11.6228 19.9999 0 0 0
130 1 -7.38724 11.6024 19.9999 0 0 0
128 1 -7.13193 6.55385 20.1019 -0.0278876 0.000430458 0.0274283
129 1 -7.21773 9.13763 19.8111 0.00584277 0.0109092 -0.00219521
139 1 -6.37982 7.85393 19.95 -0.00145155 0.0111893 0.0234208
140 1 -6.60892 10.469 19.9999 0 0 0
156 1 -4.41903 6.93202 21.2919 -0.0214995 0.0187471 0.0170443
157 1 -5.07498 7.97306 20.3912 -0.033255 0.00673405 0.0171904
158 1 -4.24981 9.17214 20.0707 -0.00263846 0.010341 0.0214344
159 1 -5.14663 10.4689 19.9999 0 0 0
160 1 -4.36691 11.6023 19.9999 0 0 0
168 1 -2.99618 6.90738 21.5731 -0.037751 0.00351079 0.0244983
169 1 -2.87906 9.14964 20.3325 0.00700855 0.009587 0.0284037
170 1 -3.12269 11.6018 19.9999 0 0 0
179 1 -2.34342 8.21618 21.3484 0.018943 0.0110047 0.0411223
180 1 -2.34103 10.4689 19.9999 0 0 0
197 1 -0.875583 8.31924 21.8004 0.00211127 0.0162964 0.023592
198 1 -0.142681 9.28373 21.0201 -0.00544735 0.0133695 0.0326822
199 1 -0.876963 10.4688 19.9999 0 0 0
200 1 -0.0953724 11.6018 19.9999 0 0 0
209 1 1.23439 9.3374 20.9666 -0.00467705 0.030298 0.0354785
210 1 1.14924 11.6018 19.9999 0 0 0
219 1 2.0108 8.37761 21.9483 0.00789609 0.0210462 0.0265785
220 1 1.93091 10.4688 19.9999 0 0 0
236 1 4.1895 7.07469 21.7177 0.00705504 0.0263533 0.0284608
237 1 3.42943 8.22086 21.4658 -0.0087704 0.0209 0.0330727
238 1 4.03052 9.23522 20.5133 0.00575321 0.0141825 0.0239567
239 1 3.39506 10.4687 19.9999 0 0 0
240 1 4.17656 11.6018 19.9999 0 0 0
248 1 5.54355 6.9624 21.3623 0.0304823 0.000945896 0.0251287
249 1 5.40442 9.11136 20.0908 0.0061815 4.07278e-05 0.0258638
250 1 5.4212 11.6017 19.9999 0 0 0
259 1 6.12123 7.89907 20.3859 0.027491 0.00758926 0.019987
260 1 6.20335 10.4685 19.9999 0 0 0
277 1 7.51902 7.88808 19.8785 0.0176044 -0.000307204 0.0139294
276 1 8.25412 6.63997 19.9969 0.0157903 0.00662092 0.00879797
278 1 8.35378 9.11465 19.8297 0.00178543 -0.00148478 -0.000205412
279 1 7.66711 10.4687 19.9999 0 0 0
280 1 8.44529 11.6024 19.9999 0 0 0
288 1 9.70622 6.64966 19.8609 0.00798099 0.0115149 0.000823645
289 1 9.79288 9.09875 19.8913 -3.16466e-05 -0.00749965 -0.00633658
290 1 9.6873 11.6101 19.9999 0 0 0
299 1 10.4813 7.81368 19.8958 -0.00370244 0.00735205 -0.00360416
300 1 10.4752 10.4755 19.9999 0 0 0
316 1 12.6473 6.74288 19.9999 0 0 0
317 1 11.9051 7.97805 19.9999 0 0 0
318 1 12.6583 9.19198 19.9999 0 0 0
319 1 11.9246 10.4937 19.9999 0 0 0
320 1 12.7709 11.5297 19.9999 0 0 0
328 1 14.0456 6.75188 19.9999 0 0 0
329 1 14.0237 9.17042 19.9999 0 0 0
330 1 13.9415 11.792 19.9999 0 0 0
173 1 -2.52255 -6.97564 22.3362 -0.033462 -0.0085982 0.0337583
184 1 -0.233406 -8.55661 22.0749 -0.00139427 -0.0203713 0.0106662
185 1 -1.0437 -7.31055 22.5919 -0.0334487 -0.0483989 0.000688835
213 1 1.92745 -7.22558 22.3697 -0.00148189 -0.0175039 0.0174932
20 1 -2.81369 -1.55321 22.6445 0.0256307 -0.00689235 0.0527242
36 1 -0.748623 -3.30081 22.5114 0.017416 0.0168264 0.0520546
147 1 -5.20232 -4.33881 22.1038 -0.00120215 0.0155747 0.00789514
163 1 -3.55351 -6.10882 22.8219 -0.0144697 -0.0150331 0.0183318
4 1 -3.00523 -0.596071 23.642 -0.0206151 0.0257877 0.0677874
60 1 -2.10752 -2.6279 23.3997 -0.0247837 -0.0129868 0.0536294
19 1 -2.34656 -0.703791 24.7781 0.00689566 0.014197 0.0343352
58 1 -1.76488 -1.90864 24.7149 -0.0096873 -0.0242951 0.0267043
148 1 -4.60746 -3.12685 22.654 -0.0117392 0.0102632 -0.00275336
149 1 -5.5072 -1.82397 22.3655 0.00646096 0.00655369 0.00881312
186 1 -0.384742 -6.32859 23.3213 0.0211508 -0.0567251 0.0200706
34 1 -0.429778 -2.32518 24.9235 -0.0211178 -0.0266442 0.0441821
150 1 -5.29696 -0.463452 22.6135 0.0235696 0.0073681 -0.00365581
164 1 -3.47098 -3.57426 23.3561 0.013271 -0.0157829 0.00110431
174 1 -2.94201 -4.94594 23.7826 0.0107882 -0.028007 0.010097
187 1 -1.69654 -5.62751 23.8556 -0.0250941 -0.0277426 0.0207934
35 1 1.38013 -3.44636 22.3411 -0.0191406 0.00616568 0.052736
2 1 3.75984 -0.993432 22.3022 -0.0179046 0.0149325 0.0437141
59 1 2.74879 -3.26531 22.6717 0.00693219 -0.00248253 0.042319
226 1 4.33437 -5.98148 22.2867 0.0198111 -0.00512302 0.0113089
12 1 0.352454 -3.47224 23.3824 -0.0091015 0.0186408 0.0425079
255 1 6.72408 -1.97437 22.4405 -0.0145764 -0.018039 0.0171634
48 1 0.479597 -1.36991 25.4771 0.034264 0.00778123 0.0459886
11 1 0.79194 -3.16319 24.7078 0.0290433 0.0163164 0.0444432
15 1 2.89825 -0.842137 23.4455 -0.0321078 0.0209474 0.0349347
244 1 6.11009 -3.35623 22.5356 0.0074185 -0.00384292 0.0105336
57 1 3.12695 -2.31199 23.9777 0.00275347 -0.00591803 0.00929605
227 1 3.71795 -4.57634 22.7822 -0.0195948 -0.00597741 0.0174596
46 1 1.8292 -1.407 25.5042 0.0318754 -0.00482991 0.0606026
203 1 1.20843 -6.12826 23.0908 0.0109642 -0.00259252 0.0278913
228 1 4.88924 -3.70144 23.4287 -0.0199691 -0.005377 -0.00111533
245 1 6.17692 -0.902451 23.1832 0.01084 -0.00842136 0.0020446
188 1 1.40891 -3.4843 27.8883 0.0544814 -0.0326273 0.0520233
33 1 2.13149 -2.73505 25.3938 -0.00631609 -0.00829755 0.0527388
229 1 4.61753 -2.47308 24.2864 -0.0158892 -0.00231342 0.0241154
214 1 2.33454 -5.27915 23.1494 -0.0106549 -0.00300996 0.0007273
230 1 5.4177 -1.29236 24.3804 -0.00193579 -0.00780927 0.0111852
204 1 2.37702 -3.00009 26.9165 0.0222915 -0.0146923 0.0668364
205 1 3.01275 -1.15612 27.4633 0.0235611 0.00376252 0.0486997
215 1 3.76527 -2.44022 27.1625 0.0316682 -0.0128806 0.0614893
22 1 2.88559 -0.534215 25.4948 0.0319767 -0.00982903 0.0400709
216 1 3.87126 -0.126228 26.7165 0.0252564 0.00786105 0.0337091
231 1 5.0466 -0.249545 25.4636 0.0409269 -0.0315034 0.00919548
136 1 -7.06803 0.806603 22.1233 -0.0254252 0.00239861 0.0438522
54 1 -2.07999 2.75213 22.9272 -0.0180906 -0.00571477 0.0453214
3 1 -3.40068 0.597971 22.8308 0.00497858 -0.00819457 0.0455194
30 1 -0.731488 2.87882 23.3418 0.00266073 0.00271869 0.0519056
178 1 -2.29055 6.01016 22.6896 0.00113192 0.00742276 0.0291005
151 1 -5.69368 0.829906 22.658 0.00791967 -0.00250364 0.00178923
153 1 -5.2591 3.48888 22.3822 2.88217e-05 0.0086081 0.0143045
154 1 -4.54138 4.83834 22.5991 0.00536781 0.0139506 0.0169852
17 1 -3.53081 2.01275 23.2828 -0.00616909 0.0174188 0.0443432
47 1 -0.817778 3.7426 24.5573 -0.0192974 0.0238351 0.0386723
152 1 -4.92863 2.17925 22.8245 0.009012 -0.00260099 0.0157277
167 1 -3.29872 5.28494 23.4385 0.00409664 -0.0303559 0.0265297
195 1 -0.799489 6.13379 23.1382 0.00792824 0.0135328 0.0222166
43 1 -1.66013 0.18972 25.8181 0.0153741 -0.038162 0.0759492
41 1 -1.31856 1.51016 26.6155 0.048243 0.0260638 0.0525853
23 1 -0.55363 2.39055 25.6321 -0.0226022 -0.00766655 0.0677198
24 1 -0.157373 0.119814 25.5871 -0.00415125 0.0273018 0.0389913
194 1 -0.656021 5.21746 24.3936 -0.0290428 0.0121696 0.0138116
177 1 -2.75816 5.6973 24.77 -0.0275717 0.00287491 -0.0062321
9 1 0.648329 2.62892 22.3594 -0.0163263 0.00656647 0.0398084
29 1 1.99129 2.66446 22.5785 -1.47161e-05 -0.0131939 0.0349792
13 1 4.20546 1.46788 22.6039 0.0202084 -0.0103407 0.0393166
247 1 5.76512 4.44871 22.2413 -0.00312521 -0.00488549 0.00923313
257 1 6.40009 3.0808 22.3313 0.0184588 -0.000953109 0.0298615
39 1 3.26071 0.169002 24.3209 -0.00936794 -0.00521405 0.0518678
235 1 3.54605 6.01236 22.6676 0.0374805 -0.00668286 0.0101909
256 1 6.72154 0.552156 22.6103 0.0230548 -0.0207063 0.0199212
45 1 2.11116 3.3112 24.1811 0.0105007 0.00507381 0.0430438
37 1 3.68466 1.54753 24.0119 0.0219543 -0.026415 0.0481944
218 1 2.23767 6.04348 22.9496 -0.0012012 -9.16968e-05 -0.00566142
234 1 4.50159 4.85101 22.9938 0.0102881 0.0106791 0.00685754
246 1 5.84601 1.64907 23.0359 0.00716417 -0.0149858 0.0126367
6 1 0.526375 1.44697 25.7152 0.0110781 0.0016103 0.0706663
21 1 2.63653 2.40123 25.1188 -0.00803917 0.0116002 0.055305
207 1 2.22869 4.70002 23.8535 0.02224 -0.0057946 0.0264028
5 1 1.97928 1.87132 26.352 0.00921841 0.00869272 0.0270987
232 1 5.1294 0.841201 24.3893 0.0190113 -0.0484364 0.0277834
233 1 4.44539 5.0593 24.5142 -0.00807917 0.0493521 0.0158557
206 1 3.02143 1.24095 27.1972 0.0449365 0.00792212 0.0892998
217 1 3.085 4.97898 25.1131 0.00973977 0.000530645 0.0295783
193 1 -1.39541 6.36406 25.1328 -0.0286586 0.00551809 -0.0120238
196 1 -0.127978 7.30275 22.5334 0.0108005 0.00854269 0.0382434
208 1 1.37624 7.29426 22.6367 0.00476651 0.0139724 0.0126042
175 1 -0.91982 -1.89884 28.7845 0.027205 -0.016322 0.0879949
165 1 -1.08913 -0.658356 29.3016 -0.00688084 -0.0022725 0.084693
189 1 0.668035 -2.24315 28.4793 0.0383775 -0.00066664 0.0722309
190 1 1.66396 -1.10332 28.4927 0.00576899 0.0191105 0.0594241
166 1 -0.983871 1.29508 28.3542 0.0246924 0.00637587 0.0870569
176 1 -0.0249642 0.646136 29.1214 0.0262942 -0.000862569 0.0533712
191 1 1.30536 0.199263 28.7666 0.0577993 0.00155996 0.0776237
192 1 2.84046 0.925996 28.5282 0.0097631 0.00038618 0.0460177
