ITEM: TIMESTEP
22500
ITEM: NUMBER OF ATOMS
330
ITEM: BOX BOUNDS pp pp pp
-1.4715758017245314e+01 1.5057610017245315e+01
-1.2710055654020760e+01 1.2664508654020761e+01
-5.0001035148846022e+01 1.0000103514884636e+02
ITEM: ATOMS id type x y z vx vy vz
61 1 -13.6674 -11.9461 19.9999 0 0 0
62 1 -13.1228 -10.6724 19.9999 0 0 0
63 1 -13.7825 -9.34696 19.9999 0 0 0
64 1 -13.0772 -8.00396 19.9999 0 0 0
65 1 -13.7542 -6.79742 19.9999 0 0 0
81 1 -11.507 -10.5408 19.9999 0 0 0
82 1 -11.5331 -8.01671 19.9999 0 0 0
91 1 -10.7591 -11.6424 19.9999 0 0 0
92 1 -10.8162 -9.23813 19.8589 -0.00942074 0.00393801 -0.00118901
93 1 -10.7935 -6.73676 19.8262 0.00206535 -0.0114105 0.00132284
101 1 -9.52473 -11.6468 19.9999 0 0 0
102 1 -8.74136 -10.5124 19.9999 0 0 0
103 1 -9.34883 -9.24771 19.7381 -0.0118323 -0.0049987 -0.00244307
104 1 -8.69269 -7.96093 20.0511 0.00882097 0.00717397 0.0297647
105 1 -9.37432 -6.73859 20.1817 -0.00124258 0.0154413 0.0300964
121 1 -7.27873 -10.5146 19.9999 0 0 0
122 1 -7.66814 -8.07105 21.0124 -0.00756411 -0.0104149 0.0329835
131 1 -6.50232 -11.6488 19.9999 0 0 0
132 1 -6.87803 -9.3343 20.8169 -0.00156496 -0.00870862 0.0172295
133 1 -7.09498 -6.9571 21.8024 0.00437742 0.00640301 0.0310419
141 1 -5.25854 -11.6473 19.9999 0 0 0
142 1 -4.47674 -10.5145 19.9999 0 0 0
143 1 -5.37213 -9.56562 20.8152 -0.00991091 -0.00182001 -0.0108954
144 1 -4.88895 -8.61454 21.7809 -0.0168094 -0.0293289 0.0127809
161 1 -3.01281 -10.5144 19.9999 0 0 0
171 1 -2.23133 -11.6474 19.9999 0 0 0
172 1 -2.57663 -9.6642 21.0957 -0.0172945 0.0105556 -0.0273605
181 1 -0.986751 -11.6474 19.9999 0 0 0
182 1 -0.205108 -10.5143 19.9999 0 0 0
183 1 -1.12277 -9.52883 20.837 0.00100791 0.0117052 -0.0123616
201 1 1.25901 -10.5143 19.9999 0 0 0
211 1 2.0406 -11.6474 19.9999 0 0 0
212 1 2.07896 -9.48668 20.8339 0.00532141 0.0213116 -0.0274528
221 1 3.28523 -11.6473 19.9999 0 0 0
222 1 4.06705 -10.5143 19.9999 0 0 0
223 1 3.43242 -9.40019 20.7801 0.0148804 -0.00254389 -0.0218568
224 1 4.36144 -8.75335 21.8381 -0.00197831 -0.0184841 -0.0142066
241 1 5.53108 -10.5143 19.9999 0 0 0
242 1 5.81501 -8.44964 21.7063 -0.0114514 -0.0229723 0.00924356
251 1 6.31174 -11.6474 19.9999 0 0 0
252 1 6.3506 -9.43861 20.915 -0.0159188 -0.00734631 0.00762065
253 1 6.5817 -7.23219 22.0146 -0.00367692 -0.0108824 0.0137735
261 1 7.55524 -11.6498 19.9999 0 0 0
202 1 1.12373 -9.00624 21.8393 -0.000128805 -0.0117834 -0.0010113
263 1 7.62069 -9.21216 20.5169 0.00489017 -0.00572049 0.0267976
265 1 8.05202 -7.04838 21.5325 0.010801 -0.0082008 0.0365321
262 1 8.33779 -10.5154 19.9999 0 0 0
264 1 8.43765 -8.01266 20.5354 0.00122567 -0.00671846 0.0430288
281 1 9.79556 -10.5245 19.9999 0 0 0
282 1 9.6945 -7.93955 19.7569 0.00110369 -0.0117201 0.0101504
291 1 10.5816 -11.6418 19.9999 0 0 0
292 1 10.48 -9.13475 19.7633 -0.000159152 -0.00884554 0.00389152
293 1 10.4316 -6.67241 19.8515 -0.00216285 -0.00932168 0.00873334
301 1 11.8019 -11.7522 19.9999 0 0 0
302 1 12.7161 -10.5156 19.9999 0 0 0
303 1 11.8934 -9.22642 19.9999 0 0 0
304 1 12.655 -8.00627 19.9999 0 0 0
305 1 11.8992 -6.77596 19.9999 0 0 0
321 1 14.087 -10.4984 19.9999 0 0 0
322 1 14.0714 -8.01298 19.9999 0 0 0
66 1 -13.0658 -5.54976 19.9999 0 0 0
67 1 -13.7179 -4.30197 19.9999 0 0 0
68 1 -13.0406 -3.0891 19.9999 0 0 0
69 1 -13.6883 -1.86008 19.9999 0 0 0
70 1 -13.0424 -0.636745 19.9999 0 0 0
83 1 -11.5387 -5.54743 19.9999 0 0 0
84 1 -11.5566 -3.09089 19.9999 0 0 0
85 1 -11.5625 -0.637245 19.9999 0 0 0
94 1 -10.8736 -4.30956 20.3477 -0.0138038 0.0086337 0.0303926
95 1 -11.0108 -1.87721 20.6585 0.00769584 -0.0199302 0.00678258
106 1 -9.06737 -5.59985 21.1512 0.013259 0.0100685 0.0342983
107 1 -9.72741 -4.37651 21.2922 -0.0199977 -0.00238493 0.0368205
108 1 -9.09459 -2.97916 21.795 -0.00398607 -0.00688273 0.0105362
109 1 -9.80678 -1.73283 21.5754 -0.0158854 0.0012745 0.0142629
110 1 -9.02227 -0.457395 22.1517 -0.000226381 0.00151544 0.0259397
124 1 -7.48424 -3.08461 21.9891 -0.00894301 -0.00412672 0.00832528
123 1 -7.70431 -5.67635 21.6735 0.0104688 -0.0213012 0.0195614
8 1 -0.563027 -1.54042 21.1963 -0.0020678 0.000214147 0.0223087
27 1 -1.09424 -0.294686 21.4458 0.00143973 0.0213132 0.022315
7 1 0.759817 -1.43176 20.6306 0.00146228 0.0108232 0.0193386
25 1 1.56289 -0.179514 20.5878 -0.00853969 0.0295038 0.0355742
26 1 1.35424 -2.37907 21.5563 -0.0446214 -0.0133138 0.0382192
38 1 2.70344 -0.350961 21.4292 -0.0193907 0.00408931 0.00656681
40 1 2.62599 -1.66619 21.7325 -0.03864 0.0347172 0.048201
266 1 8.70452 -5.82046 21.5886 -0.00190144 0.00561662 0.0458045
283 1 9.80554 -5.6497 20.6484 0.00247706 -0.0156784 0.0236407
284 1 10.1076 -3.23595 21.515 -0.00625145 0.00463289 0.0304234
285 1 10.3189 -0.76241 21.8547 0.00584703 -0.0144926 0.00556545
294 1 10.6538 -4.42176 20.7118 -0.00966819 -0.0127669 0.0389228
295 1 10.8381 -1.87958 21.2636 0.00919929 -0.00943285 0.0098738
306 1 12.6496 -5.55341 19.9999 0 0 0
307 1 11.9041 -4.32686 19.9999 0 0 0
308 1 12.647 -3.09734 19.9999 0 0 0
309 1 11.9037 -1.86828 19.9999 0 0 0
310 1 12.6457 -0.637745 19.9999 0 0 0
323 1 14.0539 -5.56516 19.9999 0 0 0
324 1 14.0472 -3.10129 19.9999 0 0 0
325 1 14.0438 -0.638188 19.9999 0 0 0
71 1 -13.6826 0.591886 19.9999 0 0 0
72 1 -13.0424 1.82079 19.9999 0 0 0
73 1 -13.6895 3.04359 19.9999 0 0 0
74 1 -13.0413 4.27397 19.9999 0 0 0
75 1 -13.7195 5.48914 19.9999 0 0 0
86 1 -11.5623 1.82169 19.9999 0 0 0
87 1 -11.5564 4.27485 19.9999 0 0 0
96 1 -10.9969 0.633517 20.541 0.00991528 -0.00250282 -0.00735786
97 1 -10.99 3.14162 20.576 -0.00685218 0.00863634 0.0246322
98 1 -10.7166 5.51053 20.0761 -0.000511725 0.0103818 0.0131434
111 1 -9.76275 0.734102 21.5722 -0.0167474 0.00281758 0.0184436
112 1 -9.16677 2.04504 21.9858 -0.0139528 0.0113671 0.0342231
113 1 -9.80831 3.30245 21.5395 -0.0207385 -0.0151627 0.0299762
114 1 -9.01064 4.55601 21.5267 -0.00888891 -0.0105898 0.0235769
115 1 -9.45838 5.71281 20.7201 -0.00107014 0.013204 0.0320042
127 1 -7.62959 4.58632 22.0681 0.00238831 -0.0203732 0.0300847
51 1 -0.441284 0.921916 20.9428 -0.00377476 -0.0106671 0.0170542
49 1 0.837482 1.06488 20.8274 -0.0312255 0.00466893 0.0137681
31 1 1.38827 1.77721 22.2245 0.0290136 -0.00701919 0.0546932
275 1 8.13284 5.44015 21.9224 0.000155147 0.00537899 0.0116319
274 1 8.91697 4.11007 22.0734 0.0108095 -0.00402749 0.0268899
286 1 10.3839 1.73078 21.8524 0.0074827 -0.00131744 0.00739884
287 1 10.2362 4.2273 21.4304 0.0207045 -0.00941084 0.0182315
296 1 10.92 0.554267 21.222 -0.000531479 -0.00669566 -0.0126678
297 1 10.9891 2.90414 21.2551 0.0165319 -0.00555044 -0.00490866
298 1 10.7409 5.45406 20.6811 0.0184394 0.00067015 0.0178683
311 1 11.9034 0.592385 19.9999 0 0 0
312 1 12.6457 1.82255 19.9999 0 0 0
313 1 11.9038 3.05326 19.9999 0 0 0
314 1 12.6466 4.28301 19.9999 0 0 0
315 1 11.9041 5.51379 19.9999 0 0 0
326 1 14.0439 1.82305 19.9999 0 0 0
327 1 14.0468 4.28589 19.9999 0 0 0
76 1 -13.0678 6.73987 19.9999 0 0 0
77 1 -13.743 7.99662 19.9999 0 0 0
78 1 -13.076 9.22053 19.9999 0 0 0
79 1 -13.6781 10.6114 19.9999 0 0 0
80 1 -13.0646 11.9529 19.9999 0 0 0
88 1 -11.5395 6.7281 19.9999 0 0 0
89 1 -11.5535 9.18478 19.9999 0 0 0
90 1 -11.7099 11.6077 19.9999 0 0 0
99 1 -10.8036 7.96532 19.7719 0.00750199 -0.00959632 -0.00638516
100 1 -10.9027 10.4758 19.9999 0 0 0
116 1 -8.736 6.99902 20.6086 0.00788328 0.00275419 0.0457239
117 1 -9.36026 7.93916 19.7041 0.0145857 -0.000822198 0.0106091
118 1 -8.59393 9.19491 19.7657 0.0208652 -0.00524987 0.00826523
119 1 -9.37207 10.4804 19.9999 0 0 0
120 1 -8.62688 11.6228 19.9999 0 0 0
130 1 -7.38724 11.6024 19.9999 0 0 0
128 1 -7.59858 7.23969 21.4114 -0.0183125 0.0132746 0.0103429
129 1 -7.20555 9.14868 20.3231 0.0184255 0.0140874 0.0186463
139 1 -6.62768 8.19839 21.2481 0.0065493 0.0171007 0.0297037
140 1 -6.60892 10.469 19.9999 0 0 0
157 1 -5.22524 8.52574 21.7335 -0.00966235 0.0361766 0.0262513
158 1 -4.538 9.59966 21.0453 0.0214645 0.0132814 0.0112219
159 1 -5.14663 10.4689 19.9999 0 0 0
160 1 -4.36691 11.6023 19.9999 0 0 0
169 1 -3.12033 9.58772 21.0764 0.00419458 -0.0104985 0.00880961
170 1 -3.12269 11.6018 19.9999 0 0 0
179 1 -2.4192 8.86545 22.0648 0.0032372 -0.00683257 0.0148882
180 1 -2.34103 10.4689 19.9999 0 0 0
198 1 -0.00626532 9.41074 20.9976 0.00405286 -0.0304543 -0.0308074
199 1 -0.876963 10.4688 19.9999 0 0 0
200 1 -0.0953724 11.6018 19.9999 0 0 0
209 1 1.38857 9.25032 21.0083 -0.0165093 -0.0103978 -0.0379049
210 1 1.14924 11.6018 19.9999 0 0 0
220 1 1.93091 10.4688 19.9999 0 0 0
238 1 4.26923 9.65217 21.0604 -0.00168501 -0.00838691 0.00629909
239 1 3.39506 10.4687 19.9999 0 0 0
240 1 4.17656 11.6018 19.9999 0 0 0
249 1 5.66001 9.54047 21.0417 -0.00197722 -0.00539129 -0.000932647
250 1 5.4212 11.6017 19.9999 0 0 0
259 1 6.42437 8.3498 21.5783 0.00667064 0.0199882 0.0108327
260 1 6.20335 10.4685 19.9999 0 0 0
237 1 3.75463 8.58988 21.8926 0.00861174 -0.013342 -0.0121576
219 1 2.24285 8.46448 21.9358 -0.00558313 -0.0117022 -0.00825841
277 1 7.74829 7.99477 21.1535 0.000556089 0.0133427 0.0317473
276 1 8.58742 6.68403 21.4068 0.00654047 -0.00364442 0.0367998
278 1 8.38915 9.05624 20.2361 0.00538702 -0.00491644 0.022058
279 1 7.66711 10.4687 19.9999 0 0 0
280 1 8.44529 11.6024 19.9999 0 0 0
288 1 9.81698 6.50079 20.6187 0.0107548 -0.00209098 0.034985
289 1 9.69904 9.00123 19.8919 -0.00105543 -0.00762696 0.0193086
290 1 9.6873 11.6101 19.9999 0 0 0
299 1 10.4016 7.72561 19.9647 -0.00273015 -0.000372506 0.0140015
300 1 10.4752 10.4755 19.9999 0 0 0
316 1 12.6473 6.74288 19.9999 0 0 0
317 1 11.9051 7.97805 19.9999 0 0 0
318 1 12.6583 9.19198 19.9999 0 0 0
319 1 11.9246 10.4937 19.9999 0 0 0
320 1 12.7709 11.5297 19.9999 0 0 0
328 1 14.0456 6.75188 19.9999 0 0 0
329 1 14.0237 9.17042 19.9999 0 0 0
330 1 13.9415 11.792 19.9999 0 0 0
145 1 -5.76746 -7.53184 22.2927 -0.000206157 -0.0237192 0.0269651
162 1 -3.41863 -8.98395 22.195 0.0383213 -0.00911793 -0.00685117
173 1 -2.6441 -8.07447 22.8086 0.0271895 -0.0114231 0.00480198
184 1 -0.298992 -9.0386 22.0285 0.00132537 -0.00933494 -0.00871653
185 1 -1.08995 -8.20864 22.928 -0.0045677 0.00416066 -0.00838419
186 1 -0.335314 -7.04441 23.3783 0.016551 0.0147119 -0.00633501
163 1 -3.31962 -6.74304 22.6861 0.0067725 0.0052804 0.00519616
225 1 3.51529 -7.79302 22.4648 0.00166211 -0.00656816 0.00235347
213 1 2.02866 -8.04934 22.6768 0.0134747 -0.000407194 0.00542056
203 1 1.27233 -7.0227 23.3448 -0.00115372 -0.007506 0.0108688
226 1 4.41433 -6.53583 22.809 0.011217 -0.0191272 0.023823
125 1 -7.43334 -0.387439 22.4202 -0.00713093 0.0104417 0.00689339
28 1 -1.16458 -2.21089 22.3533 0.00995219 0.0205793 0.0294215
134 1 -6.78717 -4.49092 22.1235 0.0343004 -0.0115658 0.0237488
42 1 -2.02119 -0.207511 22.68 0.0249087 0.00123947 0.0446648
44 1 -2.10976 -1.5024 23.2694 0.00888429 0.0103161 0.0451035
52 1 -0.416062 -3.08268 23.0087 0.0224951 -0.00398571 0.0276025
135 1 -6.77087 -1.76134 22.4175 0.00726445 -0.00500332 0.00359245
146 1 -4.93424 -6.43411 22.6569 -0.0086923 -0.0198259 0.00532283
20 1 -2.36786 -1.57052 24.7893 0.0195736 -0.043432 0.0158062
36 1 -0.857983 -3.36486 24.3911 0.004149 -0.0280809 0.0106818
147 1 -5.48737 -5.0056 22.773 0.0172394 -0.000522132 0.0214554
4 1 -1.95766 -0.310182 25.5415 0.0138098 0.00264182 0.0568471
60 1 -2.37119 -3.33834 24.6123 -0.0128307 -0.0229956 0.0517161
19 1 -1.63394 -0.131804 27.1353 0.0299984 0.0168928 0.0272115
58 1 -1.28722 -1.54551 27.3833 -0.0110432 0.0356444 0.0767319
148 1 -4.73337 -3.58692 23.1157 -0.0271216 -0.00554868 0.00727582
149 1 -5.42683 -1.93751 22.8314 0.00120237 -0.00612134 0.0103316
34 1 0.146911 -1.99595 27.3844 0.0284318 0.000480428 0.0352237
150 1 -4.87128 -0.65075 23.105 0.00236489 -0.0171346 0.0263927
164 1 -3.36109 -4.11682 23.4719 0.0143343 0.00227255 0.00454729
174 1 -2.71317 -5.61964 23.1058 0.00466503 0.016441 -0.000853084
187 1 -1.35249 -6.05745 23.5591 0.00504797 0.00215393 -0.0371052
50 1 0.747326 -2.86294 22.8184 -0.0248313 0.029967 0.0433449
16 1 3.05749 -1.9891 23.0401 -0.0302966 0.013851 0.0243963
243 1 5.84435 -6.11347 22.3091 0.00432281 -0.00299469 0.0300569
254 1 6.55931 -4.81629 22.6906 -0.0291485 0.0134138 0.0252128
35 1 1.36929 -3.18916 24.1157 0.0108175 0.00622305 0.0374047
2 1 3.34723 -0.856449 24.0196 -0.00388692 -0.0351965 0.0283114
59 1 2.68026 -2.85794 24.1194 0.0128889 0.0014589 0.061283
12 1 0.387627 -3.20853 25.334 -0.00238679 -0.00937587 0.0759324
255 1 6.8544 -2.3649 23.4793 0.00463268 0.00688105 0.0315088
48 1 0.944744 -0.658434 27.8727 0.00538812 -0.0255708 0.0561526
11 1 0.947682 -2.96322 26.661 0.0122371 0.041592 0.0589936
15 1 2.95616 -0.927788 25.3207 0.0329265 -0.00987686 0.015474
244 1 5.89608 -3.7444 23.2415 0.0169586 -0.00629359 0.0155371
57 1 3.23531 -2.40584 25.5187 0.023279 0.00731891 0.0393863
227 1 3.67275 -5.60021 23.5113 -0.000810854 -0.0223085 0.0163382
46 1 2.18163 -1.51354 27.5577 0.00301746 0.0319905 0.0235194
228 1 4.65679 -4.16827 23.7107 0.0039632 -0.0139394 0.0353603
245 1 6.32025 -1.11391 24.1211 -0.0227551 0.00908681 0.0153407
33 1 2.51636 -2.69552 27.0208 -0.0110983 0.0252456 0.0398537
229 1 4.64912 -3.12574 24.9168 0.0140793 -0.0152222 0.0244612
214 1 2.35542 -6.20103 23.7574 0.0295697 -0.00135795 0.00849588
230 1 5.28532 -1.65599 25.1906 -0.00140065 -0.0169458 0.0284564
22 1 3.17952 -0.513002 27.3632 0.0253302 -0.00416742 0.0523914
231 1 5.49615 -0.791401 26.2772 0.022928 -0.0209107 -0.00598535
267 1 8.00095 -4.68602 22.2975 -0.0145786 0.00968105 0.0314928
268 1 8.75931 -3.39748 22.1957 -0.00849468 0.00496284 0.019583
269 1 8.16942 -2.17433 22.7502 0.0056508 -0.00377266 0.016884
270 1 8.92864 -0.86191 22.5774 0.0202583 -0.023773 0.0170622
126 1 -7.6815 2.03477 22.2969 -0.00109298 -0.00932145 -0.00641745
32 1 -0.729369 1.79277 22.314 -0.0100048 -0.032132 -0.00185038
138 1 -7.07541 5.98188 22.126 -0.00258031 0.000156699 0.0137824
18 1 -2.70899 0.698541 23.5061 0.0145348 -0.00810487 0.0143873
56 1 -1.92906 2.13976 23.2052 -0.010901 -0.0140427 0.0370845
137 1 -7.00621 3.30791 22.7126 -0.00754088 -0.0219778 0.021688
155 1 -5.70385 6.2521 22.4372 -0.00808362 0.022758 0.00149788
136 1 -6.70872 0.840268 22.3755 -0.0102941 -0.0272634 0.00652164
54 1 -2.17188 2.92547 24.3119 0.00546564 0.00104881 0.0512355
3 1 -2.82728 0.908081 24.9945 0.00406624 0.0356532 0.0462952
30 1 -0.821505 3.47089 25.2754 -0.0154543 -0.00173221 0.0527668
151 1 -5.3611 0.799349 22.9955 -0.0185324 -0.000429857 0.00827145
153 1 -5.60297 3.40738 23.2333 0.00969654 0.00866823 0.0112679
154 1 -5.12778 4.91185 22.9432 0.00794323 -0.0128223 0.00775174
17 1 -3.5492 2.29147 24.6327 0.0169719 -0.00875264 0.0379695
47 1 -0.361209 3.17393 26.6129 0.0172597 -0.0191938 0.0105894
152 1 -4.77557 2.18177 23.7155 -0.0170121 -0.00318447 0.016853
167 1 -3.92058 5.52974 23.4178 -0.000648856 0.0037292 -0.00495104
43 1 -0.843688 0.734308 27.9695 0.017299 0.0170031 0.0799228
194 1 -1.64723 5.79946 24.9774 -0.0280875 0.0386245 0.00621126
177 1 -4.20234 5.45804 24.9173 -0.0213546 -0.0132174 0.0302481
193 1 -2.84656 5.40794 25.6528 -0.0119587 -0.0383544 0.0140788
14 1 3.36915 0.529499 22.2743 -0.0215697 -0.00712393 0.0572217
39 1 3.48062 -0.0421503 26.1848 0.0242195 -0.0342444 0.0603244
23 1 0.588724 3.34225 27.7258 0.0591824 0.0121509 0.0198523
10 1 0.235868 2.33508 22.9662 -0.0066746 -0.0460683 0.0362393
55 1 2.69982 1.71913 22.6693 -0.022841 0.00323084 0.0310319
258 1 6.83049 5.83837 22.3876 -0.00243903 0.0204714 0.0247787
24 1 0.650567 0.804352 27.9186 0.00530324 0.0052772 0.0445318
1 1 4.00951 0.242666 23.5119 0.00643538 -0.00359309 0.0365413
53 1 2.99392 2.0555 24.1531 0.00390417 0.00967064 0.0579713
9 1 0.426863 3.1084 24.3912 -0.00931593 -0.024294 0.0227911
29 1 1.91716 2.83479 24.893 0.0166077 0.0186501 0.0239029
13 1 4.4745 1.34642 24.1145 -0.0184425 -0.000593992 0.0194206
247 1 6.39615 4.63406 23.1331 -0.000881765 0.00345189 0.000686716
257 1 6.84758 3.14484 23.0865 0.00556083 0.00543587 0.0260292
235 1 3.88096 6.33914 23.165 0.0163335 0.0100724 0.0418797
256 1 6.67442 0.448922 23.6128 0.011709 -0.0210747 0.00459397
45 1 2.96061 3.77211 25.5217 0.0231202 0.0143322 0.0337055
37 1 4.16332 1.28483 25.7432 0.00579108 0.0275044 0.0157413
234 1 5.04952 5.37132 23.6377 0.00611967 -0.00746661 0.00647649
246 1 5.94137 1.79402 23.5571 -0.0252628 0.0134607 0.0324118
6 1 1.39319 2.02097 27.8238 0.0299174 -0.00678186 0.032047
21 1 3.60622 2.59297 26.4611 -0.00560776 0.0297548 0.0622562
207 1 2.70622 5.3967 24.7911 0.0215672 0.0255224 0.018856
5 1 2.7171 2.02112 27.6573 -0.00302215 0.0376121 0.0232386
232 1 5.32473 0.708717 26.6134 -0.00163432 -0.019202 0.0688187
233 1 5.2685 5.88657 25.0371 0.0363348 0.00435413 0.0207318
217 1 3.81939 5.85481 25.6299 0.00443271 0.0235051 0.0038006
272 1 8.92943 1.60844 22.5984 0.0143421 0.0118707 0.0278659
273 1 8.36664 2.83081 22.6065 -0.00566765 -0.00288424 0.0138008
271 1 8.14714 0.330955 22.844 0.0254632 -0.00975294 -0.00537045
178 1 -2.8262 6.4884 23.1832 -0.00797721 0.0180062 0.0182414
195 1 -1.30389 6.57488 23.6982 -0.0142403 0.0228968 -0.00381538
156 1 -4.75241 7.52729 22.5328 -0.00268801 0.0131589 0.0159993
168 1 -3.20927 7.68738 22.5179 -0.00770368 0.0247754 -0.0137628
197 1 -0.801662 8.63052 22.0528 -0.0104271 -0.00379824 -0.0132344
196 1 -0.0842732 7.53463 22.7133 -0.00329395 0.0160319 -0.010812
248 1 5.94142 7.08915 22.2286 -0.00443082 0.0049929 0.0216465
218 1 2.53964 6.57749 23.706 -0.00614136 0.00997696 0.00822181
236 1 4.50682 7.30376 22.3725 0.00470003 -0.0145256 -0.00325285
208 1 1.59237 7.40648 22.8823 -0.015501 0.00146298 0.010814
204 1 2.93086 -3.3351 28.2757 0.00295071 0.00328635 0.0158608
216 1 3.92068 -0.415995 28.5333 -0.034783 -0.0103701 0.0672994
165 1 0.860902 -0.935023 32.0052 0.0580991 0.0287483 0.0340447
215 1 3.76984 -2.8322 29.2672 0.027549 -0.00830078 0.0136124
175 1 1.63695 -2.06569 32.4073 0.0601568 -0.0152392 0.0680597
188 1 2.71464 -2.92524 29.8943 0.00979093 0.0233875 0.0489696
205 1 4.4458 -1.41067 29.7177 -0.00300499 -0.0212573 0.0302547
189 1 2.57061 -2.17735 30.9804 0.0390538 -0.0251493 0.0601014
190 1 3.36423 -0.962367 30.7398 0.0480947 0.0262369 0.0564588
41 1 -1.11873 0.539622 29.3954 0.00641241 -0.0307593 0.0231782
166 1 -0.012671 0.94861 30.0686 0.00894179 -0.0355237 0.0459259
206 1 3.46819 0.984597 28.6415 0.00645622 0.0270952 0.0247575
176 1 1.00382 0.254168 31.2143 0.0604618 -0.0162802 0.0507394
191 1 2.34877 0.248179 30.7976 0.028864 0.0199299 0.00902202
192 1 3.03624 1.47172 30.0496 -0.00850956 -0.00264993 0.0254751
