ITEM: TIMESTEP
53400
ITEM: NUMBER OF ATOMS
330
ITEM: BOX BOUNDS pp pp pp
-1.4715758017245314e+01 1.5057610017245315e+01
-1.2710055654020760e+01 1.2664508654020761e+01
-5.0001035148846022e+01 1.0000103514884636e+02
ITEM: ATOMS id type x y z vx vy vz
61 1 -13.6674 -11.9461 19.9999 0 0 0
62 1 -13.1228 -10.6724 19.9999 0 0 0
63 1 -13.7825 -9.34696 19.9999 0 0 0
64 1 -13.0772 -8.00396 19.9999 0 0 0
65 1 -13.7542 -6.79742 19.9999 0 0 0
81 1 -11.507 -10.5408 19.9999 0 0 0
82 1 -11.5331 -8.01671 19.9999 0 0 0
91 1 -10.7591 -11.6424 19.9999 0 0 0
92 1 -10.8747 -9.23701 19.773 -0.0247183 -0.00103969 -0.00477718
93 1 -10.9643 -6.814 20.332 2.22256e-05 0.00789526 0.0126069
101 1 -9.52473 -11.6468 19.9999 0 0 0
102 1 -8.74136 -10.5124 19.9999 0 0 0
103 1 -9.54357 -9.2509 20.2509 -0.0171478 -0.00888647 -0.00101926
104 1 -8.75158 -8.16869 20.4187 -0.0104787 -0.00330397 -0.00242785
105 1 -9.59145 -7.01944 20.7954 0.00201637 -0.0101482 0.0227746
121 1 -7.27873 -10.5146 19.9999 0 0 0
122 1 -7.13795 -8.14272 20.4402 0.0415368 -0.0101866 0.0197113
131 1 -6.50232 -11.6488 19.9999 0 0 0
132 1 -6.37781 -9.20647 20.0695 0.00319926 -0.0200504 -0.00384815
141 1 -5.25854 -11.6473 19.9999 0 0 0
142 1 -4.47674 -10.5145 19.9999 0 0 0
143 1 -4.9709 -9.24193 20.2851 0.0222759 0.00152894 0.00421791
161 1 -3.01281 -10.5144 19.9999 0 0 0
171 1 -2.23133 -11.6474 19.9999 0 0 0
172 1 -2.25334 -9.27571 20.0434 -0.00411054 0.0238192 0.00195821
181 1 -0.986751 -11.6474 19.9999 0 0 0
182 1 -0.205108 -10.5143 19.9999 0 0 0
183 1 -0.765309 -9.40659 19.8863 -0.00285264 0.0188142 0.0315553
162 1 -3.01884 -7.92544 20.176 -0.00798363 0.0105624 -0.0197249
144 1 -4.52858 -8.06671 20.4428 0.000165677 0.0147381 -0.0031584
133 1 -6.60939 -6.79354 20.6291 -0.00977487 -0.00374129 -0.0161939
145 1 -5.2286 -6.7992 20.6083 -0.00556921 0.00407408 0.00732311
173 1 -2.25295 -6.88418 20.2716 -0.0400148 0.040251 0.00751801
184 1 0.0559464 -8.23149 20.3422 0.00840267 0.00650075 0.0061194
185 1 -0.765593 -7.06429 20.6839 0.0173532 0.00849659 -0.0247509
201 1 1.25901 -10.5143 19.9999 0 0 0
211 1 2.0406 -11.6474 19.9999 0 0 0
212 1 2.15799 -9.26249 20.3158 -0.0136018 0.0104099 -0.00579684
221 1 3.28523 -11.6473 19.9999 0 0 0
222 1 4.06705 -10.5143 19.9999 0 0 0
223 1 3.52655 -9.22859 20.0523 0.0163677 0.00186951 0.0181716
224 1 4.31785 -7.89885 20.6165 -0.0113879 0.0190555 -0.00884436
241 1 5.53108 -10.5143 19.9999 0 0 0
242 1 5.72299 -8.13572 20.5458 0.00212725 0.00225866 0.00932827
251 1 6.31174 -11.6474 19.9999 0 0 0
252 1 6.2866 -9.37626 20.5901 -0.000969486 -0.0073407 -0.00452902
261 1 7.55524 -11.6498 19.9999 0 0 0
202 1 1.64103 -7.99364 19.967 -0.0175721 -0.0364737 -0.00201192
225 1 3.62749 -6.65433 20.506 -0.0300641 0.0054407 0.00254004
213 1 2.31438 -6.7921 19.7448 7.68221e-05 0.0192248 -0.0220265
253 1 6.40318 -6.77656 20.7156 -0.00357544 -0.00177047 0.0254158
263 1 7.543 -9.29323 20.1414 0.0101547 0.00625641 -0.0164776
265 1 7.78519 -6.90269 20.5449 0.0039364 0.00187585 -0.0118405
262 1 8.33779 -10.5154 19.9999 0 0 0
264 1 8.45882 -8.15652 20.3278 -0.00156693 0.00958691 -0.0102967
281 1 9.79556 -10.5245 19.9999 0 0 0
282 1 9.73744 -7.94554 19.8423 -0.0151999 -0.00576682 -0.0253794
291 1 10.5816 -11.6418 19.9999 0 0 0
292 1 10.4516 -9.15483 19.905 0.00238349 -0.00836875 -0.0141203
293 1 10.626 -6.89737 20.3023 -0.00668203 0.00655016 -0.0122964
301 1 11.8019 -11.7522 19.9999 0 0 0
302 1 12.7161 -10.5156 19.9999 0 0 0
303 1 11.8934 -9.22642 19.9999 0 0 0
304 1 12.655 -8.00627 19.9999 0 0 0
305 1 11.8992 -6.77596 19.9999 0 0 0
321 1 14.087 -10.4984 19.9999 0 0 0
322 1 14.0714 -8.01298 19.9999 0 0 0
66 1 -13.0658 -5.54976 19.9999 0 0 0
67 1 -13.7179 -4.30197 19.9999 0 0 0
68 1 -13.0406 -3.0891 19.9999 0 0 0
69 1 -13.6883 -1.86008 19.9999 0 0 0
70 1 -13.0424 -0.636745 19.9999 0 0 0
83 1 -11.5387 -5.54743 19.9999 0 0 0
84 1 -11.5566 -3.09089 19.9999 0 0 0
85 1 -11.5625 -0.637245 19.9999 0 0 0
94 1 -10.7975 -4.41363 20.1544 -0.0108958 -0.00740423 -0.0100835
95 1 -11.0374 -1.87883 19.6248 -0.0187319 0.00255866 0.00381735
106 1 -8.87437 -5.77179 20.416 -0.012454 -0.0103029 -0.000552017
107 1 -9.34388 -4.47663 20.3169 0.0095227 0.00600233 0.00402286
109 1 -9.78437 -1.95159 19.3931 -0.0151581 -0.00319965 0.00727312
110 1 -9.33531 -0.651781 19.2302 0.00336515 0.00275081 0.042204
108 1 -8.9115 -3.13188 19.839 -0.00660851 -0.0185851 -0.0270403
125 1 -7.70267 -0.75578 19.1278 -0.00876511 0.00660506 0.00844845
124 1 -7.4988 -2.94 20.0417 -0.0115052 -0.00997289 -0.0169528
123 1 -7.40057 -5.61279 20.5927 0.024495 -0.0109693 -0.0124459
146 1 -4.38151 -5.59866 20.1798 -0.00761481 0.0116677 0.0332934
134 1 -6.77195 -4.32383 20.1662 -0.0311748 0.0056362 -0.0203288
147 1 -5.45544 -4.46805 19.8922 -0.00423822 0.00496653 -0.0016577
135 1 -6.90381 -1.58905 19.7245 0.022337 0.000553775 0.0120922
163 1 -3.00329 -5.49245 20.4454 0.000952235 -0.0103024 -0.00976716
149 1 -5.55441 -0.397579 21.3482 -0.0483021 0.00592155 -0.00370594
150 1 -5.64944 -0.741871 20.0981 0.0145036 0.00566289 -0.0155996
174 1 -2.34742 -5.11911 21.7716 -0.013449 0.0179764 -0.00654515
226 1 4.52316 -5.51243 20.068 -0.0173731 0.0476563 -0.0199036
243 1 5.81337 -5.36848 20.481 0.00157709 -0.0131436 0.00115615
254 1 6.52845 -4.36016 19.7956 0.0255802 -0.0119712 -0.0227568
203 1 2.01638 -5.73934 18.7173 0.0363996 -0.0319902 -0.036549
244 1 5.73406 -3.21478 19.3201 0.0125014 -0.0251385 -0.0280794
227 1 4.02029 -4.66175 19.0043 -0.0262304 -0.00823239 -0.0231836
214 1 3.02109 -5.0014 17.9274 0.00904726 -0.0149415 -0.0286903
255 1 6.40016 -2.16323 18.6975 -0.00602407 0.0114689 -0.00608852
228 1 4.27216 -3.31873 19.4418 0.0160083 0.00226158 0.0148241
245 1 6.23954 -0.657903 18.1896 0.00277698 0.013858 0.00367221
229 1 3.81274 -3.38978 20.9771 0.0285816 0.00984987 -0.0337617
230 1 3.02679 -4.48868 21.4812 0.0155592 0.0152799 -0.0268051
267 1 8.05821 -4.38774 19.8753 -0.0145637 -0.0292184 -0.00563315
269 1 7.87015 -1.99658 19.1557 -0.00934143 -0.000421552 -0.0182943
283 1 10.0251 -5.6436 20.1803 0.0071478 0.00340837 0.0176757
284 1 10.0448 -3.16852 19.4562 -0.00302787 0.0136946 0.000104965
285 1 9.88607 -0.585128 19.2159 0.0181763 0.0283135 -0.00279452
294 1 10.5762 -4.43612 19.9794 0.0157924 0.0100441 -0.0221174
295 1 10.5242 -1.86707 19.5304 0.0229034 0.000960076 -0.0205067
306 1 12.6496 -5.55341 19.9999 0 0 0
307 1 11.9041 -4.32686 19.9999 0 0 0
308 1 12.647 -3.09734 19.9999 0 0 0
309 1 11.9037 -1.86828 19.9999 0 0 0
310 1 12.6457 -0.637745 19.9999 0 0 0
323 1 14.0539 -5.56516 19.9999 0 0 0
324 1 14.0472 -3.10129 19.9999 0 0 0
325 1 14.0438 -0.638188 19.9999 0 0 0
268 1 8.60253 -3.10659 19.4271 0.0119869 0.0116307 0.0159575
270 1 8.51459 -0.811852 18.8 -0.0237288 0.0151397 -0.00692554
266 1 8.70931 -5.60174 20.3741 0.0110035 0.00196939 -0.0202715
71 1 -13.6826 0.591886 19.9999 0 0 0
72 1 -13.0424 1.82079 19.9999 0 0 0
73 1 -13.6895 3.04359 19.9999 0 0 0
74 1 -13.0413 4.27397 19.9999 0 0 0
75 1 -13.7195 5.48914 19.9999 0 0 0
86 1 -11.5623 1.82169 19.9999 0 0 0
87 1 -11.5564 4.27485 19.9999 0 0 0
96 1 -10.8984 0.647659 19.9829 0.00592876 5.33441e-05 -0.0130429
97 1 -10.7594 3.07051 19.8658 0.0238874 -6.91525e-05 -0.00664961
98 1 -10.8058 5.5187 20.0554 0.000415123 -0.0126138 -0.00122595
111 1 -9.63935 0.680188 19.3745 -0.00748784 0.0165855 0.0127862
113 1 -9.52058 3.15883 19.1289 -0.0333745 -0.00413945 -0.0210106
115 1 -9.28132 5.75296 19.7274 -0.00924907 0.0163403 -0.00696319
112 1 -9.05627 1.89703 18.6615 0.00432888 0.00917594 0.00799334
114 1 -8.89755 4.58556 18.995 -0.0128583 -0.00042305 -0.00639667
126 1 -7.62908 1.71252 18.36 0.000862168 0.0139038 0.00720638
127 1 -7.36922 4.59623 18.7524 0.000416337 0.0314981 -0.0231274
138 1 -6.56925 5.69847 19.101 0.0112638 0.0348373 -0.0055769
155 1 -5.08584 5.50174 18.6734 -0.00122144 -0.00358856 0.0396933
137 1 -6.96458 3.19417 18.5701 -0.023372 0.0179452 0.00944743
154 1 -4.41274 4.13118 18.0864 -0.0119552 -0.00616433 -0.00591278
153 1 -5.63288 2.86947 18.3638 0.00465112 -0.0287785 0.0220217
136 1 -7.15536 0.420099 18.5366 -0.0392691 -0.0011956 0.00713922
151 1 -5.55192 0.265083 19.0048 -0.0189899 -0.00517574 -0.0171805
152 1 -5.32645 1.60096 18.76 -0.0185998 0.0112272 -0.0236783
167 1 -3.2813 4.06627 19.2457 0.0194797 0.00860129 -0.0436772
178 1 -2.69877 5.44532 19.7651 0.000813593 0.0079089 -0.0136792
195 1 -1.77723 5.09592 21.0429 0.0235919 -0.00426791 -0.0055812
177 1 -3.62902 3.58768 20.5045 0.0133494 -0.00581117 -0.0343086
193 1 -4.10989 4.75633 21.4133 -0.000580608 -0.0256022 -0.035891
258 1 6.17109 5.33197 19.1378 -0.00180993 0.000261237 -0.0170925
247 1 5.61477 3.99327 19.1244 -0.00645135 -0.00553523 -0.0131679
257 1 6.33274 2.90189 18.3365 -0.00203029 0.0332632 -0.021023
246 1 5.96757 1.92836 17.4209 0.00690661 0.0519072 -0.0199781
256 1 6.69664 0.498847 17.6373 0.00516383 0.00247328 0.00215017
234 1 4.48224 4.02392 20.2906 0.0116364 -0.0128551 -0.0422268
235 1 4.13589 5.33762 20.5879 -0.0159348 -0.014868 -0.021517
233 1 5.15573 3.42954 21.5822 -0.0255284 -0.00606689 -0.0152115
207 1 5.82469 6.03139 21.9147 -0.0115857 -0.0216228 0.0232815
275 1 7.79096 5.42835 19.1288 0.00643521 0.0321737 -0.00841466
271 1 8.16441 0.265988 17.9605 0.0137772 -0.00853818 0.000660164
273 1 7.84766 2.97636 18.2824 0.0115061 -0.00495847 -0.035788
286 1 9.89398 1.78241 19.162 0.0198526 0.00660162 -0.0110653
287 1 9.71017 4.29089 19.6085 -0.000564853 0.00563369 0.00390942
296 1 10.478 0.56248 19.5804 -0.020555 0.0200191 0.00845862
297 1 10.5925 3.12655 19.6972 0.00343815 0.0145462 -0.0116981
298 1 10.4175 5.51481 19.916 0.00959786 -0.00116863 -0.0127745
311 1 11.9034 0.592385 19.9999 0 0 0
312 1 12.6457 1.82255 19.9999 0 0 0
313 1 11.9038 3.05326 19.9999 0 0 0
314 1 12.6466 4.28301 19.9999 0 0 0
315 1 11.9041 5.51379 19.9999 0 0 0
326 1 14.0439 1.82305 19.9999 0 0 0
327 1 14.0468 4.28589 19.9999 0 0 0
274 1 8.34324 4.14326 18.9571 0.00582578 0.00664893 -0.00795711
272 1 8.60446 1.68605 18.4198 0.000826852 0.0159057 -0.0295605
116 1 -8.4759 6.933 19.9272 -0.00174347 0.0118184 0.0142617
76 1 -13.0678 6.73987 19.9999 0 0 0
77 1 -13.743 7.99662 19.9999 0 0 0
78 1 -13.076 9.22053 19.9999 0 0 0
79 1 -13.6781 10.6114 19.9999 0 0 0
80 1 -13.0646 11.9529 19.9999 0 0 0
88 1 -11.5395 6.7281 19.9999 0 0 0
89 1 -11.5535 9.18478 19.9999 0 0 0
90 1 -11.7099 11.6077 19.9999 0 0 0
99 1 -10.836 7.97187 20.3177 0.00462783 0.0218971 0.0117483
100 1 -10.9027 10.4758 19.9999 0 0 0
117 1 -9.44542 8.08372 20.1827 0.00466753 -0.0118354 0.00926285
118 1 -8.63917 9.33379 20.2393 0.00642671 0.0214465 0.00299053
119 1 -9.37207 10.4804 19.9999 0 0 0
120 1 -8.62688 11.6228 19.9999 0 0 0
130 1 -7.38724 11.6024 19.9999 0 0 0
129 1 -7.1512 9.27013 19.8138 -0.000543201 0.0133456 0.00180972
128 1 -7.02015 6.90966 19.577 -0.0146734 0.0182606 -0.0149376
139 1 -6.5771 8.18517 19.2942 0.0083205 0.0262501 0.00675209
140 1 -6.60892 10.469 19.9999 0 0 0
158 1 -4.49421 9.14439 19.7587 0.00112868 0.00530387 -0.00619136
159 1 -5.14663 10.4689 19.9999 0 0 0
160 1 -4.36691 11.6023 19.9999 0 0 0
169 1 -3.19565 9.11008 19.8129 0.00936955 0.00619485 -0.00450173
170 1 -3.12269 11.6018 19.9999 0 0 0
180 1 -2.34103 10.4689 19.9999 0 0 0
198 1 0.0145868 9.18931 19.9928 0.00926038 -0.00102081 0.0231639
199 1 -0.876963 10.4688 19.9999 0 0 0
200 1 -0.0953724 11.6018 19.9999 0 0 0
197 1 -0.851973 8.09381 19.7726 0.00967635 -0.000194695 -0.00225561
179 1 -2.27108 8.03797 19.7256 0.00309284 0.0139567 -0.0122413
157 1 -5.19322 8.00077 19.159 -0.00507437 0.00989994 -0.0407787
156 1 -4.53464 6.67841 19.2093 0.00962716 0.0145292 -0.0116321
168 1 -3.05197 6.79574 19.5464 0.00546328 0.00839994 0.000725492
196 1 -0.186032 6.71412 19.507 0.0238358 0.0145162 -0.0162483
209 1 1.42918 9.17616 20.0215 0.0104829 -0.0110776 0.00149684
210 1 1.14924 11.6018 19.9999 0 0 0
220 1 1.93091 10.4688 19.9999 0 0 0
238 1 4.14131 9.13302 20.0515 -0.00754763 -0.00365925 0.0208014
239 1 3.39506 10.4687 19.9999 0 0 0
240 1 4.17656 11.6018 19.9999 0 0 0
249 1 5.48228 9.10857 19.8546 -0.00843737 0.00904418 -0.00236866
250 1 5.4212 11.6017 19.9999 0 0 0
259 1 6.15439 8.01229 19.1511 0.0119427 0.0131304 -0.0295151
260 1 6.20335 10.4685 19.9999 0 0 0
237 1 3.55585 7.81418 19.7889 -0.00169712 -0.0123014 -0.0107336
219 1 2.24238 7.92861 20.032 -0.00274632 0.0067034 -0.0227223
248 1 5.55584 6.64589 19.3056 0.0244433 -0.00288477 -0.00420771
236 1 4.16089 6.51247 19.8113 0.00433386 0.0100395 0.00463332
208 1 1.02887 6.81803 20.1822 0.0368457 -0.011317 -0.0239004
277 1 7.5052 8.03434 19.6124 0.00432504 0.0239131 -0.00764972
278 1 8.30734 9.14605 20.0789 -0.00289353 -0.00789439 0.013416
279 1 7.66711 10.4687 19.9999 0 0 0
280 1 8.44529 11.6024 19.9999 0 0 0
288 1 9.73502 6.7428 19.8633 -0.00528599 0.0140358 -0.0213875
289 1 9.81149 9.2033 20.0971 -0.00971656 -0.00649502 -0.0109505
290 1 9.6873 11.6101 19.9999 0 0 0
299 1 10.5692 7.92733 20.1025 -0.00825252 -0.0226131 -0.00356879
300 1 10.4752 10.4755 19.9999 0 0 0
316 1 12.6473 6.74288 19.9999 0 0 0
317 1 11.9051 7.97805 19.9999 0 0 0
318 1 12.6583 9.19198 19.9999 0 0 0
319 1 11.9246 10.4937 19.9999 0 0 0
320 1 12.7709 11.5297 19.9999 0 0 0
328 1 14.0456 6.75188 19.9999 0 0 0
329 1 14.0237 9.17042 19.9999 0 0 0
330 1 13.9415 11.792 19.9999 0 0 0
276 1 8.28862 6.65635 19.5314 0.0137742 0.00228488 -0.0189639
186 1 -0.332422 -6.66517 22.2044 0.0123018 0.00741398 -0.00886421
187 1 -1.4512 -5.69346 22.7304 0.0249398 0.0387668 -0.0040194
20 1 -4.43082 -0.500467 25.6849 -0.0159865 0.044505 -0.0295256
60 1 -4.66575 -0.719738 24.5149 -0.0165167 -0.0242954 -0.0294037
148 1 -5.53163 -0.00555798 22.4307 -0.0174254 0.0159239 -6.50128e-05
164 1 -4.50808 -0.179457 23.4684 0.0196698 -0.0142217 -0.0134388
231 1 2.45607 -4.32771 22.7806 -0.0354263 -0.0200563 -0.0157496
232 1 2.88497 -2.93403 22.8319 0.00171986 -0.0202861 -0.0171982
2 1 2.37928 -1.83017 22.8097 -0.0240677 -0.00376401 -0.0464657
194 1 -2.74411 4.57994 22.0563 -0.00616798 -0.0194353 -0.0109045
217 1 6.03671 4.3503 22.1231 -0.0100671 -0.0133112 0.0163492
218 1 4.38941 5.77145 22.1674 -0.0129015 0.00182401 -0.000260496
8 1 -1.08155 -0.726538 29.9358 -0.00500358 0.0269548 0.00147795
28 1 -1.10893 -2.26375 30.159 0.00593033 -0.000997878 0.0564871
44 1 -2.10664 -2.28405 31.2532 0.00479784 -0.00844672 0.0103835
52 1 0.0349503 -3.28242 30.6864 0.0020707 -0.0169255 0.0345075
27 1 -1.62671 -0.20274 31.1107 0.0323997 -0.00166397 0.0326177
42 1 -2.29183 -1.01921 31.9363 -0.0260815 -0.00373281 -0.00562269
3 1 -1.50189 -2.32379 33.6016 0.00490165 0.0302297 0.0226705
18 1 -2.01352 -0.963697 33.4859 0.00392469 0.00570614 0.0314942
36 1 0.293314 -4.42566 32.0477 0.0191588 -0.00535355 0.0122971
12 1 0.415338 -3.46839 32.9796 0.0294567 0.0121815 0.003717
7 1 0.145082 -0.336216 29.3171 -0.0395884 0.0130694 0.0180466
26 1 1.66706 -1.31943 29.6056 -0.0166964 0.00355375 -0.00142385
40 1 2.65936 -0.0931148 29.7917 0.0300375 -0.016985 0.0302969
50 1 1.11632 -2.5186 30.6275 -0.0156164 0.0159091 -0.0108074
16 1 3.61764 -1.88133 31.1354 0.00560041 0.0137652 0.0260647
35 1 1.35173 -2.47634 32.0571 0.0378105 0.00653611 -0.00542191
59 1 2.58092 -2.46103 32.4889 -0.00513862 0.0207847 0.0169933
15 1 4.45488 -1.54774 32.2037 0.0074557 0.0274876 0.0443828
57 1 3.70234 -2.24528 33.2672 0.0029676 -0.0105526 -0.000272591
39 1 4.6738 -0.78428 33.6416 0.00127045 -0.0019406 0.0240169
49 1 0.158191 1.69896 30.6688 0.0140518 -0.0199475 0.0292905
51 1 -1.0003 0.991296 31.2134 -0.00230635 0.00918046 0.0619318
32 1 -1.21813 1.52404 32.4783 -0.0184172 -0.0147994 0.0330648
56 1 -1.62466 0.558899 33.5631 0.0256789 -0.0179424 0.010884
10 1 0.0420314 2.44146 33.062 -0.00347007 0.00395509 0.0335313
38 1 2.20145 1.24147 29.6154 -0.00563009 0.0248736 0.0424014
25 1 0.517683 1.05259 29.4098 -0.0226914 0.0155195 0.039461
14 1 2.82789 2.07514 30.526 -0.0260909 -0.0177847 0.0286088
31 1 0.592232 2.65979 31.714 0.0228941 -0.00509865 0.0172779
55 1 1.95256 2.63787 31.3463 0.0205747 -0.0273843 0.00418255
1 1 4.30418 1.76896 30.9574 -0.0277078 -0.00968635 0.0373973
53 1 2.69354 2.7109 32.6488 0.0450279 -0.00839609 0.0436262
13 1 3.98805 1.64465 32.4152 -0.00384774 -0.0265942 0.0266204
29 1 2.15042 2.5622 33.9599 0.0212498 0.0210672 0.0446544
37 1 4.45313 0.649196 33.5058 0.0126124 -0.0104373 0.0142136
4 1 -0.766826 -2.07984 34.7356 -0.013275 -0.00527729 0.0370688
33 1 4.06098 -3.42452 34.896 -0.0189533 -0.0259352 0.0206284
22 1 5.34786 -1.09867 34.9335 -0.00758227 -0.00400527 0.0180836
204 1 5.28908 -4.24623 34.2837 -0.0106835 0.0160857 0.00546547
19 1 2.13479 -3.65661 35.1235 0.0613075 -0.00816999 0.035246
216 1 6.74503 -0.775472 35.1577 -0.0150579 0.0111576 -0.0001481
46 1 4.76798 -2.1937 35.6756 0.0416825 -0.0264455 0.0297655
188 1 6.51539 -3.32356 34.983 0.0131762 -0.00361852 0.0256345
11 1 1.85733 -2.58357 38.5151 -0.00315628 -0.0216652 -0.00412451
58 1 2.53359 -3.73346 36.3344 0.0453476 -0.0482412 0.0308475
34 1 2.88536 -3.12393 37.5745 -0.0194817 -0.0185347 -0.00719512
48 1 3.69687 -1.79191 36.7646 -0.0225672 -5.01314e-05 0.00654415
175 1 7.43763 -1.71228 38.4211 0.0203087 -0.00783195 0.040987
24 1 2.29661 -1.39582 36.9204 -0.000126367 -0.00940262 0.0558389
6 1 3.21499 -0.152351 37.8353 0.0139698 -0.0123057 0.0224129
165 1 7.99206 -0.519958 39.359 0.0195285 0.022174 0.0185773
215 1 7.92077 -3.26124 35.1277 -0.0120336 0.0149894 -0.00133877
205 1 7.95401 -1.74976 35.7664 0.00959347 0.0177955 0.0111103
189 1 8.23941 -2.10728 37.262 0.0127962 -0.0169937 0.00525276
190 1 8.97608 -1.03475 36.8358 0.0121564 -0.0176621 0.00408341
17 1 -1.27132 0.526001 34.8581 -0.000243989 -0.0157071 0.0121178
54 1 -0.388784 0.875909 35.9284 -0.0162041 -0.00820124 0.027301
9 1 0.634444 2.35876 34.3318 0.0039522 -0.0158264 0.0364583
21 1 4.71845 1.6101 34.6748 0.0155287 -0.00860932 -0.00212499
45 1 3.2479 1.92057 35.0575 0.044155 0.0112637 0.00434413
30 1 0.986977 1.43793 35.3174 0.0403544 -0.00431231 0.0291751
47 1 2.40572 1.29908 35.7729 0.00283123 -0.00485752 0.0456541
5 1 5.87075 2.15268 35.1621 -0.0144746 0.0121476 0.0156581
206 1 6.79145 0.758727 35.0478 -0.00758049 0.0217318 0.0447973
23 1 2.04798 0.503945 37.1336 -0.0110768 0.00010571 0.00816347
41 1 5.28885 1.59087 38.9803 0.0198001 -0.0174527 0.0118079
43 1 4.45516 1.07284 39.9029 0.0194172 0.0167503 0.0314629
176 1 7.55976 0.377955 38.2152 0.0150911 0.0216085 0.028771
166 1 6.49098 1.67165 38.4615 0.0112858 -0.000683729 0.0382226
192 1 7.95304 0.98967 35.9206 -0.0247141 -0.0325611 -0.0107723
191 1 8.49827 0.3266 37.1088 0.00255303 -0.00689966 -0.00728479
