ITEM: TIMESTEP
5000
ITEM: NUMBER OF ATOMS
330
ITEM: BOX BOUNDS pp pp pp
-1.4715758017245314e+01 1.5057610017245315e+01
-1.2710055654020760e+01 1.2664508654020761e+01
-5.0001035148846022e+01 1.0000103514884636e+02
ITEM: ATOMS id type x y z vx vy vz
8 1 -0.726407 -1.39703 12.165 0.00153744 0.00105895 0.0932306
20 1 -2.89386 -1.72541 15.0447 0.00698582 -0.000590577 0.0973671
27 1 -1.4206 -0.140081 12.1265 0.00316062 -0.0015999 0.0944414
28 1 -1.32799 -2.22767 13.1274 0.00226151 -0.00221085 0.0943859
36 1 -1.09833 -3.33037 15.3772 0.00220679 5.46643e-05 0.0955422
42 1 -2.52568 -0.232153 13.0594 0.000927887 -0.00194241 0.0978102
44 1 -2.48069 -1.54236 13.6712 0.00467839 -0.000632416 0.0990387
52 1 -0.717515 -3.08865 13.9942 0.00141618 0.00124424 0.102083
4 1 -3.43736 -0.634953 15.8168 0.0115233 0.00310822 0.100221
60 1 -2.19936 -2.61422 15.8743 0.00144757 -0.00215678 0.102572
7 1 0.694321 -1.38438 12.1482 -0.000693298 0.0018222 0.0946225
16 1 2.90329 -1.71431 15.0274 -0.0064116 -0.00188644 0.0992497
25 1 1.36889 -0.148967 12.1458 2.72714e-05 -0.0009909 0.0953039
26 1 1.37526 -2.22551 13.1151 -0.00248151 -0.0024269 0.093732
35 1 1.09661 -3.34406 15.4192 -0.00323129 5.43139e-05 0.0980186
38 1 2.5083 -0.229225 13.0629 -0.00369006 0.000671597 0.0963588
40 1 2.48432 -1.51341 13.6578 -0.0034687 0.00324865 0.0978417
50 1 0.701372 -3.12628 14.0401 -0.00155611 0.00185041 0.103201
2 1 3.41404 -0.645724 15.8492 -0.0118942 0.002416 0.0992953
59 1 2.20939 -2.61239 15.9005 -0.00426662 -0.00482006 0.0989205
3 1 -3.4361 0.686884 15.283 0.00941028 0.00195583 0.0978412
9 1 -0.00581221 3.57007 14.788 0.00130449 -0.00382358 0.0975202
10 1 -0.00425724 2.94233 13.514 0.00174299 -0.00415626 0.0994967
18 1 -2.94661 0.833187 13.9414 0.00559883 0.00281549 0.097623
32 1 -1.14201 2.1922 13.043 -0.000639963 -0.000770218 0.0929668
51 1 -0.726267 1.11521 12.1851 0.0028419 -0.000436965 0.0931696
54 1 -2.26176 2.69171 15.1536 0.000683539 -0.00180617 0.0954713
56 1 -2.23959 2.05947 13.853 0.00341807 0.00350644 0.0973707
30 1 -1.12236 3.41499 15.64 -0.000518059 0.00241582 0.101948
1 1 3.41804 0.664754 15.2911 -0.00975153 -0.00285897 0.0923585
14 1 2.94866 0.8354 13.9185 -0.00594826 0.000971987 0.100269
31 1 1.13409 2.18571 13.0269 0.00177904 -0.000910723 0.0967899
49 1 0.72077 1.12423 12.1807 -0.0039999 -8.27217e-06 0.0940472
53 1 2.24982 2.6739 15.1564 -0.00412178 0.00253483 0.0961323
55 1 2.23479 2.06237 13.8661 -0.00613615 0.000243924 0.0942591
29 1 1.14667 3.40109 15.6366 -8.77297e-05 0.00124128 0.102459
61 1 -13.6674 -11.9461 19.9999 0 0 0
62 1 -13.1228 -10.6724 19.9999 0 0 0
63 1 -13.7825 -9.34696 19.9999 0 0 0
64 1 -13.0772 -8.00396 19.9999 0 0 0
65 1 -13.7542 -6.79742 19.9999 0 0 0
81 1 -11.507 -10.5408 19.9999 0 0 0
82 1 -11.5331 -8.01671 19.9999 0 0 0
91 1 -10.7591 -11.6424 19.9999 0 0 0
92 1 -10.8158 -9.23125 20.0006 -0.00381411 -0.00554963 3.50104e-05
93 1 -10.774 -6.77948 20.0053 0.00680391 0.00631857 0.000154591
101 1 -9.52473 -11.6468 19.9999 0 0 0
102 1 -8.74136 -10.5124 19.9999 0 0 0
103 1 -9.38439 -9.20587 20.0044 0.0060822 0.00235426 0.000114747
104 1 -8.5839 -8.05119 20.0143 0.0103339 0.00258004 0.000263155
105 1 -9.30884 -6.85375 20.0169 0.0118247 0.00311446 0.00026985
121 1 -7.27873 -10.5146 19.9999 0 0 0
122 1 -7.16337 -8.0773 20.0167 0.00434545 0.00474602 0.000264737
131 1 -6.50232 -11.6488 19.9999 0 0 0
132 1 -6.44042 -9.284 20.0095 0.00087068 0.00768073 6.54522e-05
133 1 -6.57762 -6.81289 20.0094 0.0166237 -0.00436504 0.000148012
141 1 -5.25854 -11.6473 19.9999 0 0 0
142 1 -4.47674 -10.5145 19.9999 0 0 0
143 1 -5.04353 -9.2261 20.0067 -0.00175504 -0.00494288 9.46581e-05
144 1 -4.37922 -7.95122 19.9976 0.00253555 -0.000172947 2.07454e-05
145 1 -5.17398 -6.78471 19.9901 0.012763 0.00497415 -0.000196398
161 1 -3.01281 -10.5144 19.9999 0 0 0
162 1 -2.99896 -7.90594 19.9832 0.00247225 0.00122611 -0.000325696
171 1 -2.23133 -11.6474 19.9999 0 0 0
172 1 -2.3895 -9.20962 19.9966 6.07643e-06 -0.00712882 -0.000257053
173 1 -2.41624 -6.64284 19.9384 0.000121014 -0.00077561 -0.000640753
181 1 -0.986751 -11.6474 19.9999 0 0 0
182 1 -0.205108 -10.5143 19.9999 0 0 0
183 1 -1.01394 -9.2693 19.9929 0.00316231 0.00712269 -0.000357593
184 1 -0.42762 -7.96969 19.9656 0.00450913 0.000860528 -0.000796813
185 1 -1.04876 -6.65512 19.9227 0.0100717 0.0048987 -0.00153184
201 1 1.25901 -10.5143 19.9999 0 0 0
202 1 0.95826 -8.01052 19.9659 0.00575186 0.00375958 -0.000872616
211 1 2.0406 -11.6474 19.9999 0 0 0
212 1 1.77927 -9.19458 19.9871 0.0103416 0.00231599 -0.000273769
213 1 1.63417 -6.8029 19.9331 0.00830989 0.00017462 -0.00123904
221 1 3.28523 -11.6473 19.9999 0 0 0
222 1 4.06705 -10.5143 19.9999 0 0 0
223 1 3.18689 -9.2691 19.9909 0.00151771 0.00773423 -0.000309848
224 1 3.85835 -8.03595 19.9817 0.00271161 0.00376468 -0.000633035
225 1 3.0409 -6.84379 19.9503 0.00628992 0.00634598 -0.00108726
241 1 5.53108 -10.5143 19.9999 0 0 0
242 1 5.33902 -8.0756 19.9947 0.00621703 0.00517926 -0.000388999
251 1 6.31174 -11.6474 19.9999 0 0 0
252 1 6.21715 -9.205 20.0037 -0.00852233 -0.00917806 -0.000222687
253 1 6.01126 -6.84517 19.9925 0.00426019 0.00302153 -0.000482492
261 1 7.55524 -11.6498 19.9999 0 0 0
265 1 7.47492 -6.81701 20.0046 0.000311081 -0.00883593 -0.000324833
262 1 8.33779 -10.5154 19.9999 0 0 0
263 1 7.61793 -9.21781 20.0064 -0.00873776 -0.00886564 -0.000102505
264 1 8.32222 -7.97982 20.0098 -0.00147859 -0.0108634 -9.83703e-05
281 1 9.79556 -10.5245 19.9999 0 0 0
282 1 9.78066 -7.93998 20.0086 -0.00207157 -0.000403584 4.87618e-05
291 1 10.5816 -11.6418 19.9999 0 0 0
292 1 10.4837 -9.20656 20.0037 0.00370871 0.0059009 6.47906e-05
293 1 10.468 -6.67201 20.0069 0.00758326 -0.00163011 -6.82394e-05
301 1 11.8019 -11.7522 19.9999 0 0 0
302 1 12.7161 -10.5156 19.9999 0 0 0
303 1 11.8934 -9.22642 19.9999 0 0 0
304 1 12.655 -8.00627 19.9999 0 0 0
305 1 11.8992 -6.77596 19.9999 0 0 0
321 1 14.087 -10.4984 19.9999 0 0 0
322 1 14.0714 -8.01298 19.9999 0 0 0
66 1 -13.0658 -5.54976 19.9999 0 0 0
67 1 -13.7179 -4.30197 19.9999 0 0 0
68 1 -13.0406 -3.0891 19.9999 0 0 0
69 1 -13.6883 -1.86008 19.9999 0 0 0
70 1 -13.0424 -0.636745 19.9999 0 0 0
83 1 -11.5387 -5.54743 19.9999 0 0 0
84 1 -11.5566 -3.09089 19.9999 0 0 0
85 1 -11.5625 -0.637245 19.9999 0 0 0
94 1 -10.7754 -4.3355 20.0103 0.00902026 -0.00535285 0.000220977
95 1 -10.8627 -1.86159 20.0084 -0.0126303 0.00156844 -3.93196e-05
106 1 -8.70784 -5.60356 20.02 0.0196619 -0.00342934 0.000562726
107 1 -9.4013 -4.35761 20.0174 0.0161022 0.00033526 0.000466773
108 1 -8.75256 -3.10395 20.0081 0.00736979 0.00431283 0.000357487
109 1 -9.44523 -1.89296 20.0086 0.00703505 -0.00400455 0.000398787
110 1 -8.78789 -0.656477 19.9963 -0.00138458 0.00435333 0.000503957
123 1 -7.35682 -5.61558 20.0091 0.0221982 -0.00354054 0.000181983
124 1 -7.38769 -3.12666 19.9746 0.00763608 -0.0012851 -0.000159324
125 1 -7.40766 -0.64715 19.9504 0.00520485 0.00177751 -0.000379114
12 1 0.01235 -3.57919 16.2594 0.00102498 0.00360781 0.0960056
19 1 -2.91665 -0.871259 17.1527 0.00637905 -0.00156589 0.0996823
58 1 -2.23071 -2.11199 17.2195 -0.00113111 -0.00439729 0.101599
11 1 0.0124214 -3.04793 17.6395 0.00281002 -0.00429187 0.0967292
34 1 -1.12513 -2.27651 18.0537 -0.00150649 0.010489 0.0874675
48 1 -0.549326 -0.897098 18.2256 0.00913905 0.0340045 0.00695589
134 1 -6.71688 -4.3522 19.9731 0.0181297 0.0108906 -0.000762378
135 1 -6.75119 -1.8796 19.9309 0.00841923 -0.000822716 -0.000785345
146 1 -4.59897 -5.51281 19.9391 0.0074941 0.00662183 -0.00104663
147 1 -5.31685 -4.32369 19.9207 0.0117755 0.004407 -0.00118127
148 1 -4.71578 -3.08544 19.8431 0.0157516 0.00706833 -0.00311593
149 1 -5.3735 -1.85725 19.8487 0.00758359 0.000693034 -0.00210363
150 1 -4.78343 -0.618152 19.7964 0.00203096 0.00237461 -0.00305286
163 1 -3.19092 -5.44919 19.8993 -0.00115645 0.000830136 -0.000999441
164 1 -3.31927 -3.04225 19.7781 0.0167576 -0.000403077 -0.00376392
165 1 -3.35554 -0.541534 19.7269 0.0149986 0.011745 -0.000179713
174 1 -2.52285 -4.19374 19.8155 0.00161963 -0.00217247 -0.00144408
175 1 -2.67626 -1.81772 19.7282 0.0052183 0.00893911 0.00046509
186 1 -0.391495 -5.43187 19.8645 0.0126661 -7.26156e-05 -0.00184679
187 1 -1.12039 -4.21785 19.799 0.0076487 -0.00477276 -0.00142475
188 1 -0.447976 -2.99311 19.7821 0.00901142 -0.0108537 0.0164846
189 1 -1.34088 -1.90756 20.1758 0.0147229 -0.00406736 0.0720216
190 1 -0.407034 -0.712507 20.2228 0.0105727 -0.0299024 0.100128
15 1 2.87735 -0.8594 17.1735 -0.00447673 0.00381245 0.101067
57 1 2.22175 -2.09892 17.2047 -0.00196411 -0.00771394 0.10068
33 1 1.14206 -2.30625 18.0492 -0.00223851 0.010205 0.0894619
46 1 0.597881 -1.03795 18.5859 -0.00142741 0.0310043 0.0554743
203 1 0.97175 -5.53512 19.879 0.00605291 -0.00269362 -0.00153332
204 1 0.957624 -3.04323 19.8064 0.00511815 -0.011077 0.0144691
205 1 0.969302 -0.807299 20.1906 0.0101267 -0.0346291 0.0775351
214 1 1.62686 -4.29876 19.8327 0.00505941 -0.00936237 -0.00122553
215 1 1.80569 -1.95119 19.9166 0.0289259 -0.0220837 0.0436026
226 1 3.77602 -5.63425 19.9309 -0.000530739 0.00222479 -0.00126533
227 1 3.07136 -4.38527 19.872 -0.00259537 0.000523181 -0.00184425
228 1 3.85271 -3.17605 19.8543 0.00188584 -0.00061836 -0.00198608
229 1 3.16095 -1.91123 19.8042 0.00238191 0.0010656 0.000282135
230 1 3.88232 -0.657011 19.8093 0.00885467 -0.00157079 -0.000503457
243 1 5.21832 -5.63461 19.9592 0.00770839 0.00455699 -0.000841601
244 1 5.2959 -3.12243 19.9038 0.00748808 -0.00375763 -0.00103033
245 1 5.3301 -0.630269 19.867 0.0075965 0.00028365 -0.00184487
254 1 5.93502 -4.39757 19.9497 0.00495801 -0.000707938 -0.000591422
255 1 6.02298 -1.88859 19.9074 -0.0056889 0.00276059 -0.00182776
269 1 7.47965 -1.83262 19.9527 -0.00421102 -0.00112467 -0.00123855
267 1 7.38106 -4.30515 19.978 0.00245205 -0.00468561 -0.000533574
266 1 8.12081 -5.54792 20.0011 0.00791404 -0.0140741 -0.000305481
268 1 8.15115 -3.08358 19.9781 -0.00380554 -0.00201365 -0.000816589
270 1 8.28189 -0.605123 19.966 -0.00583142 0.00519651 -0.00115894
283 1 9.61335 -5.48916 20.0067 0.00494311 0.00165258 -0.000260902
284 1 9.62508 -3.0278 19.9959 -0.00588198 -0.00109715 -0.000483911
285 1 9.74368 -0.648077 19.9893 -0.0079607 -0.00564253 -0.000639854
294 1 10.3995 -4.26267 20.0032 0.00264079 -0.00224331 -0.00024704
295 1 10.494 -1.86065 19.997 0.00275318 0.005221 -0.000304666
306 1 12.6496 -5.55341 19.9999 0 0 0
307 1 11.9041 -4.32686 19.9999 0 0 0
308 1 12.647 -3.09734 19.9999 0 0 0
309 1 11.9037 -1.86828 19.9999 0 0 0
310 1 12.6457 -0.637745 19.9999 0 0 0
323 1 14.0539 -5.56516 19.9999 0 0 0
324 1 14.0472 -3.10129 19.9999 0 0 0
325 1 14.0438 -0.638188 19.9999 0 0 0
71 1 -13.6826 0.591886 19.9999 0 0 0
72 1 -13.0424 1.82079 19.9999 0 0 0
73 1 -13.6895 3.04359 19.9999 0 0 0
74 1 -13.0413 4.27397 19.9999 0 0 0
75 1 -13.7195 5.48914 19.9999 0 0 0
86 1 -11.5623 1.82169 19.9999 0 0 0
87 1 -11.5564 4.27485 19.9999 0 0 0
96 1 -10.889 0.612062 20.0059 -0.0112903 -0.00430528 -0.000116714
97 1 -10.8805 3.03555 20.0069 -0.0092782 0.00873667 -4.4126e-05
98 1 -10.8174 5.49673 20.0066 0.00114496 -0.0124491 0.000105898
111 1 -9.45914 0.583538 20.0043 0.000995474 0.00222252 0.000309549
112 1 -8.74131 1.76779 19.9973 0.000552498 0.00199601 0.000377476
113 1 -9.44316 2.98533 20.009 -0.00124729 -0.00138049 0.00030751
114 1 -8.79353 4.2746 20.0107 0.0112992 -0.00262604 0.00039469
115 1 -9.33196 5.57705 20.016 0.00373255 -0.00677649 0.000311863
126 1 -7.39584 1.83425 19.9567 -0.00106269 -0.00120466 -4.73831e-05
127 1 -7.42022 4.31931 19.989 0.0176917 -0.00199003 -0.000320549
17 1 -2.95369 1.77333 16.0299 0.00564728 -0.00229969 0.101114
47 1 -0.699357 3.12509 17.0096 0.00320669 0.00843564 0.10376
41 1 -2.47247 1.55726 17.3578 -0.00414613 0.001785 0.100078
6 1 -0.572874 1.42077 18.3762 0.0107255 -0.0122364 0.0504896
23 1 -1.34886 2.28034 17.8218 -0.00548452 0.0123166 0.0852601
24 1 -1.27219 0.188728 18.3896 0.029375 0.0160135 0.0325036
43 1 -2.49206 0.211466 17.9116 -0.00127359 0.00259047 0.0822984
136 1 -6.77423 0.583862 19.9198 0.00306707 0.00214936 -0.000648094
137 1 -6.75356 3.07304 19.9474 0.00876901 -0.00759548 -0.000823549
138 1 -6.68934 5.53758 19.9912 0.00996111 -0.00471517 -0.000136458
151 1 -5.4272 0.586544 19.8385 0.00278935 0.00644852 -0.00190173
152 1 -4.79388 1.82672 19.8186 0.0113085 -0.00144232 -0.00306483
153 1 -5.38965 3.06877 19.8856 0.00864533 -0.000545233 -0.00178878
154 1 -4.66454 4.27223 19.8936 0.021478 -0.00510538 -0.00222599
155 1 -5.29588 5.5058 19.959 0.00450326 -0.00255491 -0.000386108
166 1 -3.33049 1.73193 19.7493 0.0161835 -0.00514539 -0.00118116
167 1 -3.26689 4.20616 19.8416 0.00973854 -0.00274532 -0.00231251
176 1 -2.60047 0.570993 19.8001 -0.0215422 0.00305508 0.0371549
177 1 -2.65179 2.97688 19.7668 -0.00321857 0.00011199 -0.0011826
178 1 -2.5331 5.37238 19.8819 -0.00346195 -0.00316903 -0.00125747
191 1 -1.321 0.415445 20.1759 -0.00186387 -0.0221027 0.0580635
192 1 -0.708098 1.67969 19.9348 -0.0205035 -0.0052686 0.0379362
193 1 -1.27215 2.97188 19.7846 0.00461405 0.00929026 0.00828909
194 1 -0.419601 4.12545 19.798 0.00796185 0.0151048 -0.000441215
195 1 -1.11791 5.35344 19.8609 0.00117969 0.00332395 -0.00162259
13 1 2.9493 1.78347 16.0371 -0.00224953 0.000616341 0.100697
45 1 0.73135 3.15726 16.9971 -0.000556903 0.00868395 0.0998914
37 1 2.49446 1.56001 17.3995 0.00333913 0.0035264 0.104152
5 1 0.812112 1.3958 18.5754 0.0211156 -0.00197064 0.0303009
21 1 1.3817 2.30481 17.864 0.00200902 0.0081642 0.0889778
22 1 1.33824 0.155569 18.3769 -0.00791912 0.00602824 0.0414645
39 1 2.49142 0.213385 17.8893 0.00493282 0.000972109 0.086527
206 1 1.02224 1.78196 19.8364 0.0128092 0.00653971 0.0195182
207 1 0.989926 4.1948 19.8172 -0.00013889 0.00927201 -0.000824031
216 1 1.79717 0.524989 19.8986 0.0246055 -0.0137428 0.0285797
217 1 1.80109 3.06361 19.814 0.00614785 0.00650797 0.00414907
218 1 1.61849 5.46673 19.8812 0.00310743 0.000190283 -0.0017931
231 1 3.26027 0.590511 19.8164 0.0224115 0.00477652 0.00745773
232 1 3.86501 1.84212 19.8266 0.0134863 0.00217882 -0.000520207
233 1 3.16289 3.0917 19.8324 0.00182315 -0.00391013 -0.0013481
234 1 3.77476 4.38065 19.8888 0.00315834 -0.00807886 -0.00180453
235 1 3.0281 5.58647 19.9109 0.0017906 -0.00611425 -0.00170323
246 1 5.31916 1.7966 19.8814 0.00894773 0.00463532 -0.00131601
247 1 5.24669 4.30555 19.929 0.00510987 -0.00154077 -0.000909806
256 1 6.0653 0.606684 19.9 -0.00684871 0.00631564 -0.00198048
257 1 5.96795 3.05782 19.925 0.00143498 0.00219402 -0.00101561
258 1 5.9461 5.56703 19.97 0.0121022 -0.00921133 -0.000575045
271 1 7.51716 0.60334 19.9485 -0.00425016 0.00595202 -0.00139986
273 1 7.43919 2.97746 19.9624 0.00241154 0.00102174 -0.00084374
275 1 7.39351 5.50242 19.9914 0.00290487 0.00777545 -0.000434265
272 1 8.30772 1.81299 19.9709 0.00310425 0.00487451 -0.000933723
274 1 8.16194 4.23397 19.9872 0.00820039 0.00745781 -0.000483339
286 1 9.75703 1.81856 19.9899 -0.00854461 -0.00964809 -0.000734991
287 1 9.65196 4.26144 19.999 -0.00119766 0.007328 -0.000492481
296 1 10.4931 0.574989 19.9942 0.0046785 -0.00237004 -0.000335461
297 1 10.4728 3.08395 19.9976 0.00232628 -0.00298355 -0.000359576
298 1 10.4134 5.50595 20.0046 0.00370906 0.00473372 -0.000207294
311 1 11.9034 0.592385 19.9999 0 0 0
312 1 12.6457 1.82255 19.9999 0 0 0
313 1 11.9038 3.05326 19.9999 0 0 0
314 1 12.6466 4.28301 19.9999 0 0 0
315 1 11.9041 5.51379 19.9999 0 0 0
326 1 14.0439 1.82305 19.9999 0 0 0
327 1 14.0468 4.28589 19.9999 0 0 0
76 1 -13.0678 6.73987 19.9999 0 0 0
77 1 -13.743 7.99662 19.9999 0 0 0
78 1 -13.076 9.22053 19.9999 0 0 0
79 1 -13.6781 10.6114 19.9999 0 0 0
80 1 -13.0646 11.9529 19.9999 0 0 0
88 1 -11.5395 6.7281 19.9999 0 0 0
89 1 -11.5535 9.18478 19.9999 0 0 0
90 1 -11.7099 11.6077 19.9999 0 0 0
99 1 -10.8467 7.99693 20.003 0.00555565 -0.0060478 0.000112434
100 1 -10.9027 10.4758 19.9999 0 0 0
116 1 -8.65048 6.80396 20.0168 -0.000244448 -0.00273037 0.000325798
117 1 -9.35009 8.02783 20.0108 -0.000302168 0.000101897 0.00010266
118 1 -8.64561 9.22638 20.0069 -0.00573645 0.00147285 9.08198e-05
119 1 -9.37207 10.4804 19.9999 0 0 0
120 1 -8.62688 11.6228 19.9999 0 0 0
130 1 -7.38724 11.6024 19.9999 0 0 0
128 1 -7.25543 6.81706 20.0133 0.0125754 -0.00109899 0.000323655
129 1 -7.21956 9.17084 20.0088 -0.00287455 0.00110161 0.00015768
139 1 -6.42976 7.996 20.0105 0.0104077 0.0015478 0.000104296
140 1 -6.60892 10.469 19.9999 0 0 0
156 1 -4.50459 6.66946 19.9723 0.00452241 -0.00319734 -0.000404041
157 1 -5.04128 7.97112 20.0013 0.00696874 0.00539219 4.73918e-05
158 1 -4.37018 9.19937 20.0024 0.0066356 0.00438799 -0.000150161
159 1 -5.14663 10.4689 19.9999 0 0 0
160 1 -4.36691 11.6023 19.9999 0 0 0
168 1 -3.1087 6.65588 19.9456 0.00272991 0.0015749 -0.000719146
169 1 -2.9752 9.16829 19.9973 0.00967512 -0.00207164 -0.000208509
170 1 -3.12269 11.6018 19.9999 0 0 0
179 1 -2.36798 7.89123 19.9725 0.00239863 -0.0060773 -0.000727099
180 1 -2.34103 10.4689 19.9999 0 0 0
196 1 -0.435169 6.63639 19.919 0.00415822 0.00148023 -0.00140428
197 1 -0.975606 7.94006 19.9649 -0.00155901 -0.00322404 -0.00092967
198 1 -0.274479 9.20563 19.9881 -0.00702504 0.00147577 -0.000365846
199 1 -0.876963 10.4688 19.9999 0 0 0
200 1 -0.0953724 11.6018 19.9999 0 0 0
208 1 0.94233 6.72517 19.9253 0.0070827 -0.00289974 -0.00145469
209 1 1.1327 9.28831 19.9873 -0.000435334 0.00163888 -0.000385578
210 1 1.14924 11.6018 19.9999 0 0 0
219 1 1.66548 7.98516 19.9643 0.000713661 -0.00073412 -0.000787662
220 1 1.93091 10.4688 19.9999 0 0 0
236 1 3.79248 6.80457 19.9587 0.00597224 -0.00314269 -0.000899845
237 1 3.08706 7.99933 19.9742 0.00347802 -0.00231471 -0.000620795
238 1 3.9558 9.15288 19.9944 0.0110996 -0.00407613 -0.000237225
239 1 3.39506 10.4687 19.9999 0 0 0
240 1 4.17656 11.6018 19.9999 0 0 0
248 1 5.2374 6.80656 19.9783 0.00653385 -0.00793247 -0.000754183
249 1 5.38114 9.21537 19.9993 0.00473811 0.00207919 -0.000154671
250 1 5.4212 11.6017 19.9999 0 0 0
259 1 6.04143 8.01041 19.9997 -0.00113292 -0.00434874 -0.000448766
260 1 6.20335 10.4685 19.9999 0 0 0
277 1 7.50818 8.01241 20.0073 -0.00275348 0.0050547 -0.000205986
276 1 8.18168 6.73475 20.0071 0.00670896 0.00502397 -0.000269582
278 1 8.35211 9.16218 20.0064 -0.00363901 0.0046017 -2.15632e-05
279 1 7.66711 10.4687 19.9999 0 0 0
280 1 8.44529 11.6024 19.9999 0 0 0
288 1 9.66077 6.70931 20.0085 0.00198459 0.011322 -0.000118177
289 1 9.77732 9.17778 20.0052 -0.000311866 0.00720064 4.70362e-05
290 1 9.6873 11.6101 19.9999 0 0 0
299 1 10.4838 7.92862 20.0059 -0.00439988 0.00369028 4.15098e-05
300 1 10.4752 10.4755 19.9999 0 0 0
316 1 12.6473 6.74288 19.9999 0 0 0
317 1 11.9051 7.97805 19.9999 0 0 0
318 1 12.6583 9.19198 19.9999 0 0 0
319 1 11.9246 10.4937 19.9999 0 0 0
320 1 12.7709 11.5297 19.9999 0 0 0
328 1 14.0456 6.75188 19.9999 0 0 0
329 1 14.0237 9.17042 19.9999 0 0 0
330 1 13.9415 11.792 19.9999 0 0 0
