ITEM: TIMESTEP
28200
ITEM: NUMBER OF ATOMS
330
ITEM: BOX BOUNDS pp pp pp
-1.4715758017245314e+01 1.5057610017245315e+01
-1.2710055654020760e+01 1.2664508654020761e+01
-5.0001035148846022e+01 1.0000103514884636e+02
ITEM: ATOMS id type x y z vx vy vz
61 1 -13.6674 -11.9461 19.9999 0 0 0
62 1 -13.1228 -10.6724 19.9999 0 0 0
63 1 -13.7825 -9.34696 19.9999 0 0 0
64 1 -13.0772 -8.00396 19.9999 0 0 0
65 1 -13.7542 -6.79742 19.9999 0 0 0
81 1 -11.507 -10.5408 19.9999 0 0 0
82 1 -11.5331 -8.01671 19.9999 0 0 0
91 1 -10.7591 -11.6424 19.9999 0 0 0
92 1 -10.8905 -9.30838 20.6079 -0.00335328 -0.0155743 0.0121534
93 1 -10.8732 -6.8959 20.5259 0.0175843 0.00934733 -0.0141458
101 1 -9.52473 -11.6468 19.9999 0 0 0
102 1 -8.74136 -10.5124 19.9999 0 0 0
103 1 -9.47572 -9.5844 20.9588 -0.0276104 -0.00863086 0.000953304
104 1 -8.82316 -8.48086 21.4385 -0.00682634 0.00284558 -0.0116389
105 1 -9.78178 -7.34234 21.4365 0.000300479 0.010157 -0.0151617
121 1 -7.27873 -10.5146 19.9999 0 0 0
122 1 -7.28462 -8.29405 21.5334 -0.0125856 -0.00144912 -0.00530932
131 1 -6.50232 -11.6488 19.9999 0 0 0
132 1 -6.48652 -9.40236 20.925 -0.00473282 -0.00326131 -0.00333117
141 1 -5.25854 -11.6473 19.9999 0 0 0
142 1 -4.47674 -10.5145 19.9999 0 0 0
143 1 -5.04179 -9.28909 20.6849 -0.009131 0.029751 -0.039472
161 1 -3.01281 -10.5144 19.9999 0 0 0
171 1 -2.23133 -11.6474 19.9999 0 0 0
172 1 -2.15929 -9.31173 20.8617 -0.010627 0.0248762 -0.00885353
181 1 -0.986751 -11.6474 19.9999 0 0 0
182 1 -0.205108 -10.5143 19.9999 0 0 0
183 1 -0.769613 -9.26624 20.8641 0.0205561 0.010547 0.00745287
184 1 0.0997832 -8.02483 21.5461 -0.00038156 0.0196677 -0.0183673
162 1 -2.93707 -8.05429 21.4652 0.0200659 0.000864422 0.00272695
144 1 -4.35414 -8.00548 21.292 0.000687958 0.0109271 -0.0188677
201 1 1.25901 -10.5143 19.9999 0 0 0
211 1 2.0406 -11.6474 19.9999 0 0 0
212 1 1.97036 -9.42286 21.0001 -0.010482 -0.00824206 -0.000903461
221 1 3.28523 -11.6473 19.9999 0 0 0
222 1 4.06705 -10.5143 19.9999 0 0 0
223 1 3.52957 -9.31017 21.048 0.00625767 -0.0138287 0.0116709
224 1 4.31748 -8.04312 21.8052 -0.00392657 -0.00407229 0.00892169
241 1 5.53108 -10.5143 19.9999 0 0 0
242 1 5.75287 -8.04797 21.6346 0.00230791 0.00592023 0.00450074
251 1 6.31174 -11.6474 19.9999 0 0 0
252 1 6.32518 -9.2944 20.8051 0.00491562 0.00751367 -0.00940856
261 1 7.55524 -11.6498 19.9999 0 0 0
202 1 1.57716 -8.23753 21.5752 0.0169383 0.00103552 -0.00808866
263 1 7.74707 -9.26886 20.7838 0.00525802 -0.000313723 -0.0229792
262 1 8.33779 -10.5154 19.9999 0 0 0
264 1 8.69998 -8.31642 21.3986 0.00281211 0.00533495 -0.017884
281 1 9.79556 -10.5245 19.9999 0 0 0
282 1 10.1447 -8.40709 21.5258 -0.00942061 -0.0213901 -0.0102618
291 1 10.5816 -11.6418 19.9999 0 0 0
292 1 10.7586 -9.46263 20.7941 0.0218478 -0.0241998 -0.00829436
293 1 10.86 -7.0317 21.0582 -0.0117086 0.00739597 -0.0273001
301 1 11.8019 -11.7522 19.9999 0 0 0
302 1 12.7161 -10.5156 19.9999 0 0 0
303 1 11.8934 -9.22642 19.9999 0 0 0
304 1 12.655 -8.00627 19.9999 0 0 0
305 1 11.8992 -6.77596 19.9999 0 0 0
321 1 14.087 -10.4984 19.9999 0 0 0
322 1 14.0714 -8.01298 19.9999 0 0 0
66 1 -13.0658 -5.54976 19.9999 0 0 0
67 1 -13.7179 -4.30197 19.9999 0 0 0
68 1 -13.0406 -3.0891 19.9999 0 0 0
69 1 -13.6883 -1.86008 19.9999 0 0 0
70 1 -13.0424 -0.636745 19.9999 0 0 0
83 1 -11.5387 -5.54743 19.9999 0 0 0
84 1 -11.5566 -3.09089 19.9999 0 0 0
85 1 -11.5625 -0.637245 19.9999 0 0 0
94 1 -10.7374 -4.48122 20.0533 -0.0179464 0.0016895 0.0163084
95 1 -10.8203 -1.92304 20.2751 -0.00582827 -0.0245866 -0.000409674
106 1 -9.12349 -6.11404 21.6212 -0.00713461 -0.0082186 -0.0162677
107 1 -9.57611 -4.87953 20.9619 -0.0104487 -0.00697473 -0.0104
109 1 -9.37507 -2.17389 21.0033 -0.00686541 -0.00842648 -0.0105547
110 1 -8.79701 -0.955063 21.4648 -0.00640761 -0.0180916 -0.0155513
108 1 -8.93261 -3.63788 21.3225 0.0152521 -0.00160069 -0.0269385
283 1 10.2935 -5.79034 21.332 -0.00346046 0.0034495 -0.0301599
284 1 10.0867 -3.18613 21.1078 0.00412082 -0.0138088 -0.00974323
285 1 10.0821 -0.539118 21.08 0.0016502 0.00137375 -0.0176717
294 1 10.7691 -4.36755 20.777 -0.00451805 -0.00843601 -0.00307463
295 1 10.6771 -1.72207 20.668 0.00438461 -0.00937114 -0.00395264
306 1 12.6496 -5.55341 19.9999 0 0 0
307 1 11.9041 -4.32686 19.9999 0 0 0
308 1 12.647 -3.09734 19.9999 0 0 0
309 1 11.9037 -1.86828 19.9999 0 0 0
310 1 12.6457 -0.637745 19.9999 0 0 0
323 1 14.0539 -5.56516 19.9999 0 0 0
324 1 14.0472 -3.10129 19.9999 0 0 0
325 1 14.0438 -0.638188 19.9999 0 0 0
71 1 -13.6826 0.591886 19.9999 0 0 0
72 1 -13.0424 1.82079 19.9999 0 0 0
73 1 -13.6895 3.04359 19.9999 0 0 0
74 1 -13.0413 4.27397 19.9999 0 0 0
75 1 -13.7195 5.48914 19.9999 0 0 0
86 1 -11.5623 1.82169 19.9999 0 0 0
87 1 -11.5564 4.27485 19.9999 0 0 0
96 1 -10.8539 0.55793 20.314 0.00622558 0.00456161 -0.0344815
97 1 -10.8819 3.05667 20.1105 -0.00646799 0.0139654 -0.00832998
98 1 -10.8658 5.49489 20.5109 0.0206208 0.00620927 -0.00303114
111 1 -9.53497 0.346562 20.9549 0.0096617 -0.000665019 -0.0173746
113 1 -9.66561 3.00783 20.9849 -5.85996e-05 -0.00430957 -0.0195593
115 1 -9.94772 5.51052 21.563 -0.00235388 0.00925443 -0.00769168
112 1 -9.16558 1.67061 21.5242 0.000271961 -0.0135722 -0.0180578
114 1 -9.36368 4.23826 21.6979 -0.00228218 0.0123649 -0.0318572
286 1 9.91921 2.06029 21.1056 0.012874 -0.0100601 -0.011985
287 1 10.0548 4.55062 21.0447 0.00870566 0.00934097 -0.0150178
296 1 10.514 0.754983 20.6204 0.0145292 -0.000268452 -0.0191637
297 1 10.5097 3.18535 20.5239 -0.0246537 -0.00647194 -0.00153563
298 1 10.664 5.7447 20.6863 -0.00100305 0.0254083 -0.0209681
311 1 11.9034 0.592385 19.9999 0 0 0
312 1 12.6457 1.82255 19.9999 0 0 0
313 1 11.9038 3.05326 19.9999 0 0 0
314 1 12.6466 4.28301 19.9999 0 0 0
315 1 11.9041 5.51379 19.9999 0 0 0
326 1 14.0439 1.82305 19.9999 0 0 0
327 1 14.0468 4.28589 19.9999 0 0 0
76 1 -13.0678 6.73987 19.9999 0 0 0
77 1 -13.743 7.99662 19.9999 0 0 0
78 1 -13.076 9.22053 19.9999 0 0 0
79 1 -13.6781 10.6114 19.9999 0 0 0
80 1 -13.0646 11.9529 19.9999 0 0 0
88 1 -11.5395 6.7281 19.9999 0 0 0
89 1 -11.5535 9.18478 19.9999 0 0 0
90 1 -11.7099 11.6077 19.9999 0 0 0
99 1 -11.0938 8.05305 20.6967 -0.0203192 0.00859869 -0.0141145
100 1 -10.9027 10.4758 19.9999 0 0 0
116 1 -9.35415 6.94321 21.9367 -0.00565367 0.0270395 0.0182501
117 1 -9.82568 8.24442 21.3748 -0.0043024 0.0236628 -0.0115278
118 1 -8.85974 9.57025 21.0408 0.0101514 0.0102439 0.0155219
119 1 -9.37207 10.4804 19.9999 0 0 0
120 1 -8.62688 11.6228 19.9999 0 0 0
130 1 -7.38724 11.6024 19.9999 0 0 0
129 1 -7.53443 9.36627 20.999 0.00491201 -0.00142093 0.000965876
139 1 -7.09663 8.06724 21.3926 -0.00480136 -0.0321392 -0.0273975
140 1 -6.60892 10.469 19.9999 0 0 0
158 1 -4.7419 9.23146 20.7764 0.0123713 -0.0201372 -0.0300965
159 1 -5.14663 10.4689 19.9999 0 0 0
160 1 -4.36691 11.6023 19.9999 0 0 0
169 1 -3.34355 9.13558 20.5659 0.0145043 -0.0239774 -0.00951593
170 1 -3.12269 11.6018 19.9999 0 0 0
180 1 -2.34103 10.4689 19.9999 0 0 0
198 1 -0.258979 9.48304 20.7273 0.0170898 0.0053201 -0.0164001
199 1 -0.876963 10.4688 19.9999 0 0 0
200 1 -0.0953724 11.6018 19.9999 0 0 0
197 1 -1.38854 8.56976 21.2507 0.00315426 0.0108809 -0.00388219
179 1 -2.76007 8.15224 21.3701 -0.00258795 -0.00583727 0.00892419
157 1 -5.60081 8.12188 21.3246 0.0012166 -0.0212647 -0.0191607
209 1 1.20546 9.39477 20.5042 -0.00601603 0.00267225 0.00612307
210 1 1.14924 11.6018 19.9999 0 0 0
220 1 1.93091 10.4688 19.9999 0 0 0
238 1 4.31153 9.17041 20.4838 0.0151234 -0.00436692 0.0145517
239 1 3.39506 10.4687 19.9999 0 0 0
240 1 4.17656 11.6018 19.9999 0 0 0
249 1 5.71364 8.99463 20.377 -0.0133059 -0.0152574 0.00220051
250 1 5.4212 11.6017 19.9999 0 0 0
259 1 6.50725 7.96898 21.0377 0.00264411 -0.000248735 -0.0230273
260 1 6.20335 10.4685 19.9999 0 0 0
237 1 3.68727 8.09344 21.3373 -0.00873281 0.000257214 0.000319606
219 1 2.24312 8.38259 21.3108 -0.0138881 0.0205194 -0.000154702
248 1 5.8566 6.90918 21.8841 0.00740593 -0.0200022 -0.00851121
277 1 7.93365 8.15982 21.3445 -0.00249481 0.00683025 -0.0215537
278 1 8.51837 9.32565 20.7131 -0.0287592 -0.00778477 -0.0271548
279 1 7.66711 10.4687 19.9999 0 0 0
280 1 8.44529 11.6024 19.9999 0 0 0
288 1 10.1251 6.98683 21.3896 -0.00717356 -0.000417874 -0.0205349
289 1 9.89543 9.41982 20.8089 -0.00118784 -0.0024791 -0.0210163
290 1 9.6873 11.6101 19.9999 0 0 0
299 1 10.7545 8.16301 20.8516 -0.0229507 -0.00131605 -0.0158179
300 1 10.4752 10.4755 19.9999 0 0 0
316 1 12.6473 6.74288 19.9999 0 0 0
317 1 11.9051 7.97805 19.9999 0 0 0
318 1 12.6583 9.19198 19.9999 0 0 0
319 1 11.9246 10.4937 19.9999 0 0 0
320 1 12.7709 11.5297 19.9999 0 0 0
328 1 14.0456 6.75188 19.9999 0 0 0
329 1 14.0237 9.17042 19.9999 0 0 0
330 1 13.9415 11.792 19.9999 0 0 0
133 1 -6.6616 -7.15378 22.0965 -0.0130507 0.0109085 -0.0199835
145 1 -5.20242 -7.07824 22.1656 0.00207095 0.0188154 -0.0260562
173 1 -2.02314 -7.06261 22.2382 0.0254974 0.0314167 -0.0111385
185 1 -0.462713 -6.85134 22.1139 -0.0139584 0.00757201 -0.0351879
253 1 6.6776 -7.11127 22.3418 0.021859 0.0115623 -0.0207721
225 1 3.75763 -7.0315 22.6882 -0.0021543 0.0135901 -0.0244502
213 1 2.36898 -6.97702 22.3805 0.00182764 0.022931 -0.0257082
265 1 8.19829 -7.16944 22.1386 0.0107102 0.00397139 -0.00245733
123 1 -7.65445 -5.96014 22.3392 0.00608618 0.00337982 -0.0203489
124 1 -7.89524 -3.56602 22.592 0.00204193 -0.00225694 -0.0143245
125 1 -8.12429 -1.09051 22.8185 -0.0133401 0.00296499 0.00865383
163 1 -2.84498 -6.05563 22.7719 0.00405286 0.0210362 -0.0279171
135 1 -7.25179 -2.32536 23.2001 0.00414073 -0.0122511 0.00895517
8 1 -1.09788 -1.40186 23.1164 0.0183956 0.0319554 0.0447544
146 1 -4.53686 -6.00685 22.9128 0.00845169 0.00883867 -0.0263938
28 1 -1.4407 -2.37796 24.116 -0.00437513 -0.0138507 0.0328349
134 1 -6.96286 -4.71042 22.9126 -0.00797484 0.00165825 -0.00312505
42 1 -2.29022 -0.377353 24.646 -0.0165276 0.00374661 0.0619151
44 1 -2.14679 -1.67515 25.2018 -0.0287942 -0.0011205 0.0197428
52 1 -0.476911 -3.65438 24.4787 0.0119282 0.0281387 0.0545411
20 1 -3.07937 -2.38965 26.2641 -0.0430295 -0.0182512 0.0457701
36 1 -1.05549 -3.68519 26.0491 -0.0164775 0.0222507 0.0454983
147 1 -5.38952 -4.92852 23.4124 -0.0168915 -0.0187244 0.00816321
60 1 -2.59436 -3.7141 25.7514 -0.00401022 0.0103405 0.00664206
148 1 -4.81402 -3.61419 23.8052 -0.00947977 -0.0140825 0.015648
149 1 -5.83914 -2.32828 23.7094 -0.0203453 0.00472501 0.0164036
150 1 -5.7439 -0.963805 23.8821 -0.00650746 -0.0193819 0.00597166
164 1 -3.32858 -3.97842 24.1884 -0.00549047 0.0109078 0.0203094
174 1 -2.26466 -5.07943 23.6294 0.00459488 0.0234333 0.017464
187 1 -0.769149 -5.05795 23.6158 -0.0232514 0.00182637 0.021784
226 1 4.67146 -6.18034 23.6649 0.00459882 0.0175464 -0.0101998
186 1 0.259455 -5.87422 23.0565 -0.0136897 0.0382159 0.0139464
12 1 0.232735 -3.10155 27.0044 0.0129041 0.00842237 0.0177974
25 1 0.892557 -0.175569 23.0679 0.0252396 0.0126479 0.0669285
203 1 1.73295 -5.95164 23.1206 0.0169235 0.0179264 -0.0087729
7 1 0.243817 -1.30614 23.4052 -0.0188497 -0.00528192 0.0401992
243 1 6.05826 -6.33819 23.4378 0.0103382 0.00547963 -0.000600913
38 1 2.25503 -0.386649 23.4244 -0.0172078 0.015584 0.0136465
26 1 1.05119 -2.11275 24.2341 0.0201629 -0.0186308 0.0339657
40 1 2.36562 -1.24841 24.5127 0.00186467 0.00241563 0.0448582
50 1 0.686324 -3.22592 24.8194 0.00717125 -0.00191731 0.0425874
16 1 3.20021 -1.70457 25.4826 -0.0105051 -0.0289151 0.0607955
254 1 7.24661 -5.20509 23.5439 0.010757 -0.0160223 -0.0186553
35 1 1.28336 -3.1959 26.1316 -0.00202468 -0.00610214 0.0366265
2 1 4.22365 -0.783732 25.8706 -0.00491412 -0.0146052 0.0211206
59 1 2.56299 -2.4671 26.4852 -0.000481198 0.00286589 0.00861367
255 1 7.52841 -2.56814 23.8293 0.0456319 0.013601 0.00708268
15 1 4.41545 -1.25089 27.1589 0.00320521 -0.00498462 0.0333814
244 1 6.80385 -3.93573 24.1468 0.015892 0.012424 -0.0109534
57 1 3.27292 -2.12955 27.562 0.0188512 0.0225445 0.0194746
227 1 4.00772 -5.25936 24.5107 0.0276857 0.00522081 -0.0118363
228 1 5.14983 -4.04538 24.6059 0.0332473 -0.00470247 -0.0309125
245 1 7.47105 -1.27861 24.5223 0.015896 0.0325261 0.00853491
229 1 5.43982 -2.85145 25.2153 0.0226196 0.0193417 -0.0156902
214 1 2.60574 -5.22295 24.2275 -0.00899617 0.031457 0.00291813
230 1 6.4136 -1.84532 25.5014 0.0151895 -0.000368912 -0.000660945
231 1 6.76617 -1.58359 26.9473 0.00434928 -0.00792829 0.0291412
232 1 6.65179 -0.983414 27.9905 0.00668481 -0.00531035 0.0082234
39 1 4.88801 -0.052105 27.9826 0.0262554 -0.00470644 0.00359988
266 1 9.02514 -6.01377 22.078 0.0340876 -0.0109875 0.00246694
267 1 8.44806 -4.87664 22.7912 0.0242924 -0.00482025 -0.011706
268 1 9.03449 -3.51946 22.0771 -0.0122192 -0.00508441 -0.0221618
269 1 8.37703 -2.34958 22.5253 0.000103535 0.00146835 -0.0138693
270 1 8.90588 -0.969602 22.1452 -0.00790056 -0.00804352 -0.0304139
127 1 -7.95408 4.37598 22.4875 6.31543e-05 0.00659684 0.00123226
126 1 -8.27707 1.57491 22.77 0.00280167 0.00959566 -0.0104834
136 1 -7.88547 0.306763 23.2585 -0.00564125 -0.0236032 -0.00108497
137 1 -7.69436 3.12764 23.0079 -0.0149034 -0.00719181 0.00519492
27 1 -1.7221 -0.0874723 23.2532 0.00737502 -0.0462692 0.0448167
51 1 -1.07276 1.08894 23.0708 -0.00526415 -0.0157069 0.0343075
32 1 -1.0718 2.08589 24.0667 -0.00246955 -0.0480571 0.0341096
138 1 -7.26907 5.72492 22.5149 -0.0151395 -0.000517637 -0.0161295
18 1 -2.38186 0.807789 25.7593 -0.0183747 0.012769 0.0688157
56 1 -1.91257 2.00759 25.3214 0.0275124 0.00511345 0.0254984
54 1 -1.47832 2.84188 26.6557 0.00784432 0.0181123 0.0279015
3 1 -2.35565 0.936239 27.2099 0.0111669 -0.0076838 0.0519195
30 1 -0.250845 2.53414 27.0286 -0.0237579 0.0074682 0.0375098
151 1 -6.47818 0.424228 23.5811 -0.00864792 0.00479462 -0.00627157
153 1 -6.27321 3.20386 23.2497 -0.019414 -0.00671255 0.010234
154 1 -5.3111 4.53657 23.4409 -0.00768066 -0.0166418 0.0043013
17 1 -2.65363 2.37739 27.4574 0.0109395 0.0361139 0.0662129
152 1 -5.88021 1.77379 23.2932 -0.001231 -0.00206213 0.00487277
167 1 -4.04074 5.12841 24.131 0.0145902 -0.0157037 -0.000264572
177 1 -3.00481 4.90448 25.0975 0.0322323 0.0101205 -0.0201327
193 1 -2.2017 5.64964 26.237 0.00419741 0.0192153 0.00568528
155 1 -5.86066 5.7357 22.7916 -0.0207439 -0.0314676 0.00444646
47 1 0.0999506 3.02972 28.0424 -0.022371 -0.00527963 0.0361599
10 1 0.366406 2.60643 24.3215 0.0113006 0.0490169 -0.000469653
49 1 0.326684 1.12869 22.9032 0.0365405 0.0164641 0.0441603
31 1 1.36241 1.94857 23.4849 0.00648869 0.00399129 0.0116103
14 1 3.34279 0.519571 23.7961 -0.00629736 -0.00643983 0.0441797
55 1 2.841 2.02495 23.7432 -0.00606157 0.0301661 -0.00262206
258 1 6.88467 5.79612 22.6432 0.00137668 0.00287051 -0.01215
1 1 3.8579 0.319246 25.128 -0.000951122 -0.00299502 0.00936728
53 1 3.00029 2.6472 25.0261 -0.0149408 -0.0403348 0.0281931
9 1 0.616196 2.45114 25.7108 0.0154451 0.0249461 0.0248794
29 1 2.10488 2.99561 26.1142 0.0138688 -0.00261363 0.0243133
13 1 3.73284 1.64551 25.8392 0.0034624 0.00503284 0.0180329
247 1 6.70864 4.66017 23.5811 0.0113099 0.00247758 -0.0121863
257 1 7.54123 3.16684 23.6849 0.0287175 0.00986651 -0.00610978
45 1 2.94292 3.06257 27.2995 0.00576444 -0.0260322 0.0220941
37 1 4.16905 1.08696 27.2361 0.023542 -0.00611961 -0.00653297
234 1 5.37123 5.32358 24.2708 0.00165835 -0.0164233 -0.00857329
246 1 7.5543 1.71626 23.9742 0.0278135 -0.0131532 -0.0101306
233 1 5.03605 5.62669 25.5514 -0.0252725 0.00539018 0.00193222
235 1 4.33538 6.13085 23.4188 0.00508337 0.00723585 0.00869673
256 1 7.87293 0.320439 23.8496 0.0175349 0.0220739 -0.0148987
275 1 8.35036 5.75931 22.3442 0.000861603 0.0118338 -0.0184189
274 1 9.02508 4.51037 22.0878 -0.00266945 -0.0178008 -0.0298064
272 1 9.00219 1.75019 22.2132 0.00283922 -0.00281012 -0.0231271
273 1 8.42802 3.15969 22.5585 0.00362081 -0.00632149 -0.0154238
271 1 8.55744 0.329586 22.639 0.00873267 0.0223651 -0.0258212
128 1 -8.01881 7.03287 22.0862 -0.00661775 -0.0039521 -0.00813872
194 1 -1.57955 6.96877 25.9065 0.0038321 -0.00379963 0.0041448
178 1 -3.03727 6.32647 23.5506 -0.0250549 -0.00764218 -0.00521929
195 1 -2.37055 7.0721 24.6162 -0.0100659 -0.00348078 0.0402186
156 1 -4.96102 7.03175 22.1771 -0.00591373 -0.0360184 -0.0119012
168 1 -3.53889 6.9451 22.3026 0.00721844 -0.0318967 -0.00889364
196 1 -0.347033 7.97359 22.2479 0.00222278 -0.0131478 -0.0236652
207 1 3.63045 7.67165 25.6384 0.0307306 0.0166544 -0.00516229
217 1 4.45706 6.90425 26.3649 -0.000714269 0.0100445 0.0099379
218 1 3.39723 6.52396 24.4862 0.0304314 0.0183052 0.0173225
236 1 4.56422 6.92295 22.058 -0.00203134 -0.0261849 -0.0141153
208 1 1.0811 7.79369 21.997 0.00927182 -0.0114186 -0.00868524
276 1 8.76114 7.10196 21.9922 0.0105721 0.0105996 -0.0248997
58 1 -0.937907 -1.41844 29.6032 0.0322418 -0.0102135 0.0260158
19 1 -1.99974 -0.304681 29.5612 -0.0178103 -0.0273542 0.0410912
11 1 1.0037 -2.86569 28.4328 0.0108079 -0.0116703 -0.00565443
33 1 2.35528 -2.22273 29.0561 0.0104018 0.0321396 0.0292822
46 1 2.66693 -0.708568 29.0866 0.0147239 0.0325587 0.0245869
34 1 0.390649 -1.65168 29.1491 -0.0319202 0.00391534 -0.00107736
48 1 1.46395 -0.438653 29.3591 -0.0166294 -0.000160504 0.0213749
204 1 2.8336 -2.84619 30.8484 0.011451 -0.00766953 0.0211319
215 1 4.04177 -1.73589 30.6822 0.0210653 0.0262911 0.0119432
188 1 4.11105 -2.57344 31.7862 0.0224275 0.0145676 0.0620556
205 1 4.64451 -0.523095 31.1578 0.0200734 -0.0172567 0.0106961
189 1 4.13912 -1.65571 32.9506 0.0192479 0.0136845 0.0104364
190 1 4.383 -0.596926 32.4871 0.010521 0.00380445 0.0475839
166 1 1.14928 -0.834304 33.0654 0.00997659 -0.0138337 0.0447876
41 1 0.80127 -0.0369761 32.1799 0.0331985 0.00664828 0.0336196
4 1 -1.84635 0.877318 28.8498 0.0028965 -0.00506147 0.0433337
21 1 3.90707 2.30053 28.1828 -0.0266421 -0.018845 0.0412187
22 1 3.88311 0.173186 29.0383 -0.00902507 0.00519391 0.0477854
43 1 0.484056 1.22633 31.3167 0.051042 4.11503e-05 0.0669357
23 1 0.903685 2.50669 28.7993 0.0044149 -0.00230149 0.0373688
216 1 4.592 0.597811 30.242 0.0174102 0.000842846 0.0441638
6 1 1.68837 2.14694 29.7873 0.00616052 -0.00397877 0.0720098
5 1 3.30322 2.51818 29.6586 0.0123776 0.00343201 0.0276699
24 1 1.28937 0.853735 30.1686 -0.0170053 -0.00156174 0.0391438
206 1 4.10766 1.96443 30.9714 -0.012811 0.031473 0.0255059
191 1 3.51878 0.373678 33.2026 0.0300292 0.00343052 0.0371476
192 1 3.87539 1.3492 32.2799 0.0209878 0.0313136 0.029125
176 1 2.4411 -0.384269 34.2967 0.0242222 -0.00668515 0.0877568
165 1 3.34112 -1.59454 35.0543 0.0458547 -0.0514224 0.0748533
175 1 4.46824 -2.07428 34.464 0.030603 0.00200977 0.0308025
