ITEM: TIMESTEP
43300
ITEM: NUMBER OF ATOMS
330
ITEM: BOX BOUNDS pp pp pp
-1.4715758017245314e+01 1.5057610017245315e+01
-1.2710055654020760e+01 1.2664508654020761e+01
-5.0001035148846022e+01 1.0000103514884636e+02
ITEM: ATOMS id type x y z vx vy vz
61 1 -13.6674 -11.9461 19.9999 0 0 0
62 1 -13.1228 -10.6724 19.9999 0 0 0
63 1 -13.7825 -9.34696 19.9999 0 0 0
64 1 -13.0772 -8.00396 19.9999 0 0 0
65 1 -13.7542 -6.79742 19.9999 0 0 0
81 1 -11.507 -10.5408 19.9999 0 0 0
82 1 -11.5331 -8.01671 19.9999 0 0 0
91 1 -10.7591 -11.6424 19.9999 0 0 0
92 1 -10.8784 -9.22093 20.0934 0.00804836 0.000685445 -0.031693
93 1 -10.9067 -6.74808 20.107 0.00805919 -0.00429217 0.017527
101 1 -9.52473 -11.6468 19.9999 0 0 0
102 1 -8.74136 -10.5124 19.9999 0 0 0
103 1 -9.53892 -9.33378 19.5529 0.00140008 -0.025118 -0.0150627
104 1 -8.80653 -8.10608 19.9363 -0.00487635 0.0280464 0.020861
105 1 -9.3727 -6.69626 20.1037 -0.0108072 -0.00751916 0.0112421
121 1 -7.27873 -10.5146 19.9999 0 0 0
122 1 -7.26186 -8.0731 19.8461 -0.0273673 0.000692731 0.0112699
131 1 -6.50232 -11.6488 19.9999 0 0 0
132 1 -6.58242 -9.2344 19.6352 0.0217294 0.00366416 0.00361001
141 1 -5.25854 -11.6473 19.9999 0 0 0
142 1 -4.47674 -10.5145 19.9999 0 0 0
143 1 -5.15172 -9.28923 19.4992 -0.00930725 0.00643538 0.00643422
161 1 -3.01281 -10.5144 19.9999 0 0 0
171 1 -2.23133 -11.6474 19.9999 0 0 0
172 1 -2.29633 -9.25899 20.0336 0.0129231 -0.013973 -0.0152354
181 1 -0.986751 -11.6474 19.9999 0 0 0
182 1 -0.205108 -10.5143 19.9999 0 0 0
183 1 -0.929768 -9.20581 19.9528 -0.0086803 0.0270904 0.0146509
162 1 -2.95297 -8.01891 20.0659 0.00512098 0.0231279 -0.0205398
144 1 -4.33005 -8.00127 19.7575 0.0113351 0.0251558 -0.00514903
133 1 -6.7001 -6.80711 19.609 0.0162187 -0.0183199 0.01495
145 1 -5.26101 -6.87037 19.9695 0.00332514 0.00933154 -0.00153076
173 1 -2.48437 -6.819 20.8649 -0.00862907 0.0153051 -0.0350783
184 1 -0.297387 -8.12783 20.4879 0.00318802 -0.0149053 -0.00865759
185 1 -1.27555 -7.27302 21.4018 0.00574553 -0.0171333 0.0036041
201 1 1.25901 -10.5143 19.9999 0 0 0
211 1 2.0406 -11.6474 19.9999 0 0 0
212 1 1.93536 -9.38549 19.9831 0.0177888 0.0148901 -0.0117932
221 1 3.28523 -11.6473 19.9999 0 0 0
222 1 4.06705 -10.5143 19.9999 0 0 0
223 1 3.1677 -9.30608 19.6809 0.0109535 0.0063418 -0.00667823
224 1 3.92878 -7.99952 19.683 -0.00480849 -0.0157 -0.00280656
241 1 5.53108 -10.5143 19.9999 0 0 0
242 1 5.29495 -8.04894 20.0323 0.00432809 -0.00838656 0.0111069
251 1 6.31174 -11.6474 19.9999 0 0 0
252 1 6.12514 -9.26986 20.0752 0.00268428 0.00801261 0.00219152
261 1 7.55524 -11.6498 19.9999 0 0 0
202 1 1.10149 -8.24486 20.3913 0.0191893 0.00797577 0.0226941
225 1 3.10982 -6.8702 19.914 -0.00458294 0.00329098 -0.0206668
213 1 1.77516 -6.92506 20.5512 -0.0103288 0.00388828 -0.0279919
253 1 6.00348 -6.83368 19.9619 0.012279 -0.00562704 0.00770223
265 1 7.42667 -6.673 20.0835 -0.000126963 -0.0181779 0.0382747
263 1 7.76241 -9.16187 19.9861 -0.00214699 -0.00278043 0.0182473
262 1 8.33779 -10.5154 19.9999 0 0 0
264 1 8.4118 -7.98155 19.9643 0.013203 0.0201411 0.00360431
281 1 9.79556 -10.5245 19.9999 0 0 0
282 1 9.83879 -8.15748 19.6558 0.000517686 -0.00512145 0.0112943
291 1 10.5816 -11.6418 19.9999 0 0 0
292 1 10.5869 -9.44469 19.6401 -0.00317628 -0.0149455 0.00787268
293 1 10.4618 -6.86742 19.9662 0.00014087 -0.015997 0.00154003
301 1 11.8019 -11.7522 19.9999 0 0 0
302 1 12.7161 -10.5156 19.9999 0 0 0
303 1 11.8934 -9.22642 19.9999 0 0 0
304 1 12.655 -8.00627 19.9999 0 0 0
305 1 11.8992 -6.77596 19.9999 0 0 0
321 1 14.087 -10.4984 19.9999 0 0 0
322 1 14.0714 -8.01298 19.9999 0 0 0
66 1 -13.0658 -5.54976 19.9999 0 0 0
67 1 -13.7179 -4.30197 19.9999 0 0 0
68 1 -13.0406 -3.0891 19.9999 0 0 0
69 1 -13.6883 -1.86008 19.9999 0 0 0
70 1 -13.0424 -0.636745 19.9999 0 0 0
83 1 -11.5387 -5.54743 19.9999 0 0 0
84 1 -11.5566 -3.09089 19.9999 0 0 0
85 1 -11.5625 -0.637245 19.9999 0 0 0
94 1 -10.8773 -4.2905 19.6791 0.00354651 -0.00428088 0.00634464
95 1 -10.97 -1.87344 19.864 -0.0134714 0.00681264 0.00235232
106 1 -8.81315 -5.48035 19.6716 0.0114707 -0.00718002 -0.0010825
107 1 -9.49538 -4.23663 19.8352 0.00619762 -0.0263563 0.00476983
109 1 -9.5324 -1.77047 19.837 0.0034893 0.00418482 -0.00677337
110 1 -8.91587 -0.510723 20.246 0.0183167 0.0192558 -0.0171523
108 1 -8.81488 -3.01189 19.8114 -0.0115519 -0.028924 -0.00392263
125 1 -7.45711 -0.59907 20.4679 0.0227281 -0.0349505 -0.0342605
123 1 -7.44052 -5.57533 19.7476 0.00184147 -0.0197319 0.00716332
124 1 -7.45015 -3.12475 20.4792 0.0139405 -0.02724 -0.00755028
146 1 -4.75603 -5.82059 20.9303 0.00718958 -0.0114763 -0.0199303
134 1 -6.74468 -4.27074 19.8662 0.0229036 0.0142191 -0.00774496
147 1 -5.40121 -4.59968 20.71 -0.00145203 0.040965 0.00303837
135 1 -6.75902 -1.82193 20.8461 0.0165829 -0.0116254 -0.00493735
163 1 -3.4115 -5.87476 21.8276 -0.0019515 0.011725 -0.00218352
149 1 -5.3617 -1.22482 21.5205 0.0153432 0.0300584 -0.00700045
150 1 -5.09004 -0.887382 20.0912 0.00387442 -0.0546551 -0.0111852
226 1 3.69282 -5.63803 20.3771 0.00202565 -0.0278513 -0.0288479
243 1 5.21329 -5.58508 19.9756 0.0221158 -0.0041397 -0.00137805
254 1 5.9642 -4.38767 19.7858 0.0168384 -0.00485208 0.000651731
203 1 1.11403 -5.81402 21.2102 0.0028579 -0.0132005 0.0131636
269 1 7.51554 -1.87497 20.3605 0.00289105 0.00346982 -0.0203885
267 1 7.37381 -4.30317 20.1955 -0.0058106 -0.0107525 0.0154133
244 1 5.33323 -3.07439 20.5127 -0.0245694 -0.0296485 -0.0729278
227 1 3.32496 -4.60505 21.286 -0.0313582 0.0144 -0.0103226
214 1 1.95397 -4.53348 21.3982 -0.0241415 -0.0145355 -0.0178742
255 1 6.14362 -1.84378 20.623 0.00312238 -0.017994 -0.0468933
228 1 4.04716 -3.13156 21.0785 -0.00855863 -0.0106653 -0.0624662
245 1 5.46928 -0.602492 21.4653 0.00428503 -0.0270374 -0.0537271
283 1 9.59963 -5.80454 20.7132 0.014412 -0.0214787 0.0165793
284 1 9.58431 -3.19687 20.3109 0.0202207 -0.015898 -0.00987184
285 1 9.78157 -0.718904 20.2388 -0.0122891 -0.0153524 -0.034696
294 1 10.4061 -4.43844 20.2796 0.00399722 -0.0068145 -0.00963852
295 1 10.4897 -1.92146 20.1042 0.00108654 -0.0228963 -0.0166132
306 1 12.6496 -5.55341 19.9999 0 0 0
307 1 11.9041 -4.32686 19.9999 0 0 0
308 1 12.647 -3.09734 19.9999 0 0 0
309 1 11.9037 -1.86828 19.9999 0 0 0
310 1 12.6457 -0.637745 19.9999 0 0 0
323 1 14.0539 -5.56516 19.9999 0 0 0
324 1 14.0472 -3.10129 19.9999 0 0 0
325 1 14.0438 -0.638188 19.9999 0 0 0
268 1 8.15944 -3.12657 20.2809 0.0154857 -0.0202465 0.0163169
270 1 8.38595 -0.709669 20.7526 0.00310643 0.00279472 -0.0119917
266 1 8.1341 -5.57856 20.636 -0.00273623 -0.014428 0.018803
71 1 -13.6826 0.591886 19.9999 0 0 0
72 1 -13.0424 1.82079 19.9999 0 0 0
73 1 -13.6895 3.04359 19.9999 0 0 0
74 1 -13.0413 4.27397 19.9999 0 0 0
75 1 -13.7195 5.48914 19.9999 0 0 0
86 1 -11.5623 1.82169 19.9999 0 0 0
87 1 -11.5564 4.27485 19.9999 0 0 0
96 1 -10.9682 0.543941 19.9885 -0.00721844 -0.0112776 0.00055905
97 1 -10.8804 3.05209 19.4948 0.0272643 -0.0109494 0.0117624
98 1 -10.9549 5.55253 19.7779 -0.0037903 0.0251302 0.0187287
111 1 -9.56923 0.826631 20.2688 0.0255442 -0.0141162 -0.0281179
113 1 -9.51002 3.00038 18.9557 -0.012429 -0.00946717 -4.52041e-05
115 1 -9.59613 5.57107 19.3614 -0.00468236 0.0235992 0.00444575
112 1 -8.81766 2.00963 19.8139 0.00780099 0.00939374 -0.0335078
114 1 -8.79563 4.27194 19.0828 -0.00378692 0.0243622 0.00567167
126 1 -7.40764 2.11864 19.7837 0.00164565 -0.0206808 -0.0350659
127 1 -7.42016 4.58749 19.5739 -0.0106269 -0.0256693 0.0028078
138 1 -6.79809 5.77527 19.7111 -0.0136421 0.0174647 -0.0140883
155 1 -5.49626 5.82676 20.2974 -0.0228659 0.0178302 -0.00981458
137 1 -6.60491 3.33666 19.6947 0.002962 0.00441549 -0.0308813
154 1 -4.73943 4.63829 20.6726 -0.0156762 -0.0170904 -0.0169488
153 1 -5.39798 3.31917 20.4762 -0.0058389 -0.0154205 -0.0218722
136 1 -7.04972 0.747759 20.2397 0.0222438 -0.0191263 -0.0604833
151 1 -5.56447 0.576332 20.2021 -0.00547279 0.0010249 -0.0501927
152 1 -5.00792 1.91545 20.0773 0.0271183 -0.0179066 -0.0393769
167 1 -4.11336 5.03724 21.8328 -0.0112789 -0.0109225 -0.014583
258 1 6.34507 5.68975 19.7246 0.00403056 -0.0267844 -0.00241287
247 1 5.89267 4.53717 20.3739 -0.0155904 -0.014529 -0.0144576
257 1 6.15857 3.07792 20.2433 0.00688326 -0.0143888 -0.00723242
246 1 5.42924 1.80235 20.8138 -0.00788195 -0.0167985 -0.0186177
256 1 6.20677 0.625771 20.9236 -0.00239061 -0.0150134 -0.0339799
273 1 7.59063 3.06228 20.0762 0.00465015 0.0131763 2.64451e-05
234 1 5.72148 4.91622 21.8543 -0.0295857 -0.0248641 -0.0396759
275 1 7.77884 5.64641 19.8002 0.00152578 0.00838841 0.0196921
286 1 9.77759 1.72791 20.1426 -0.00606677 0.0304229 -0.00981464
287 1 9.90456 4.22378 20.1789 0.0015451 0.0168242 0.0016614
296 1 10.5088 0.509432 20.281 -0.0169322 -0.0240302 -0.0349309
297 1 10.5301 2.98274 20.2365 0.000228254 -0.00618457 0.0131711
298 1 10.4283 5.5223 20.0198 0.0077569 0.0095437 0.0033531
311 1 11.9034 0.592385 19.9999 0 0 0
312 1 12.6457 1.82255 19.9999 0 0 0
313 1 11.9038 3.05326 19.9999 0 0 0
314 1 12.6466 4.28301 19.9999 0 0 0
315 1 11.9041 5.51379 19.9999 0 0 0
326 1 14.0439 1.82305 19.9999 0 0 0
327 1 14.0468 4.28589 19.9999 0 0 0
274 1 8.453 4.44956 20.0514 0.003407 0.00710509 0.000530989
272 1 8.42718 1.87671 20.4747 -0.0370951 -0.00213624 -0.00866637
271 1 7.72801 0.558438 20.729 0.00876301 -0.00220718 -0.0423706
76 1 -13.0678 6.73987 19.9999 0 0 0
77 1 -13.743 7.99662 19.9999 0 0 0
78 1 -13.076 9.22053 19.9999 0 0 0
79 1 -13.6781 10.6114 19.9999 0 0 0
80 1 -13.0646 11.9529 19.9999 0 0 0
88 1 -11.5395 6.7281 19.9999 0 0 0
89 1 -11.5535 9.18478 19.9999 0 0 0
90 1 -11.7099 11.6077 19.9999 0 0 0
99 1 -10.8209 7.9873 20.0843 0.0207666 -0.00410309 -0.0118438
100 1 -10.9027 10.4758 19.9999 0 0 0
116 1 -8.77045 6.74505 19.7069 0.0101586 0.00974435 0.0017996
117 1 -9.34777 7.95948 20.2762 -0.0142247 0.0109852 -0.00563281
118 1 -8.61611 9.10368 20.0725 0.0255377 0.00258973 0.00172463
119 1 -9.37207 10.4804 19.9999 0 0 0
120 1 -8.62688 11.6228 19.9999 0 0 0
130 1 -7.38724 11.6024 19.9999 0 0 0
128 1 -7.46728 6.93447 19.1099 0.0118974 -0.00871956 0.00282753
129 1 -7.16262 9.24922 19.605 -0.00371425 -0.0116457 0.00579058
139 1 -6.45094 8.04673 19.3502 -0.0105239 0.00103128 0.0097904
140 1 -6.60892 10.469 19.9999 0 0 0
158 1 -4.44398 9.31948 19.528 -0.0139371 0.0188007 0.00248538
159 1 -5.14663 10.4689 19.9999 0 0 0
160 1 -4.36691 11.6023 19.9999 0 0 0
169 1 -3.02635 9.24387 19.7814 -0.00445762 -0.00289594 -0.0199025
170 1 -3.12269 11.6018 19.9999 0 0 0
180 1 -2.34103 10.4689 19.9999 0 0 0
198 1 -0.0758791 9.12255 20.2039 -0.00950132 0.00400935 0.00549224
199 1 -0.876963 10.4688 19.9999 0 0 0
200 1 -0.0953724 11.6018 19.9999 0 0 0
197 1 -0.95967 8.02754 20.6883 0.00159411 -0.00263047 -0.00648533
179 1 -2.41107 8.20931 20.5174 -0.00939643 0.0131733 -0.0252401
157 1 -4.99557 7.92034 19.2417 -0.00459384 0.0114825 0.00664257
156 1 -4.47808 6.78502 20.0467 0.00378443 -0.0087299 -0.0218953
168 1 -3.2695 7.04466 20.8034 0.0110926 -0.0155427 -0.0272851
196 1 0.142724 7.08687 20.9126 -0.0177262 0.00743076 0.0104045
209 1 1.26031 9.12905 20.145 0.00418246 -0.00681075 -0.00276396
210 1 1.14924 11.6018 19.9999 0 0 0
220 1 1.93091 10.4688 19.9999 0 0 0
238 1 4.2085 9.13088 19.868 -0.00431576 -0.00969901 0.00236921
239 1 3.39506 10.4687 19.9999 0 0 0
240 1 4.17656 11.6018 19.9999 0 0 0
249 1 5.65257 9.08984 19.8096 -0.00247415 -0.0112547 0.0223293
250 1 5.4212 11.6017 19.9999 0 0 0
259 1 6.48208 8.04645 19.7542 0.0113212 0.00962806 0.0136663
260 1 6.20335 10.4685 19.9999 0 0 0
237 1 3.50427 7.96704 20.2942 -0.0330939 0.00898319 -0.00224277
219 1 2.07948 8.10305 20.605 0.00856349 -0.0165148 -0.0291512
248 1 5.74996 6.82651 20.0975 0.00619526 -0.0278127 -0.00105575
236 1 4.40654 6.80261 20.7533 0.0131362 -0.00718866 -0.00174091
208 1 1.50008 6.64246 20.7082 0.0242416 0.0200019 -0.00826544
277 1 7.9187 8.11863 19.7915 -0.011705 0.000377754 0.00068696
278 1 8.4131 9.26915 19.9653 0.00537575 0.00936001 0.011183
279 1 7.66711 10.4687 19.9999 0 0 0
280 1 8.44529 11.6024 19.9999 0 0 0
288 1 9.76862 6.69154 19.9752 0.00770513 0.0167104 -0.00983513
289 1 9.80042 9.18524 20.0165 -0.00306006 0.0121451 0.0119666
290 1 9.6873 11.6101 19.9999 0 0 0
299 1 10.528 7.97714 20.1138 0.000232592 -0.00491026 -0.0142024
300 1 10.4752 10.4755 19.9999 0 0 0
316 1 12.6473 6.74288 19.9999 0 0 0
317 1 11.9051 7.97805 19.9999 0 0 0
318 1 12.6583 9.19198 19.9999 0 0 0
319 1 11.9246 10.4937 19.9999 0 0 0
320 1 12.7709 11.5297 19.9999 0 0 0
328 1 14.0456 6.75188 19.9999 0 0 0
329 1 14.0237 9.17042 19.9999 0 0 0
330 1 13.9415 11.792 19.9999 0 0 0
276 1 8.43087 6.86176 19.8539 0.0131181 0.00917616 -0.00247264
186 1 -1.41211 -7.01151 22.8283 -0.0205591 -0.0260345 -0.0185843
187 1 -1.76855 -6.60104 24.0378 0.01224 0.0044264 -0.0197725
8 1 -1.12766 -1.22472 27.6979 -0.0353303 -7.06981e-05 -0.00566373
20 1 -3.52705 -1.63838 26.8943 -0.00722596 0.0255358 0.00446711
60 1 -3.46287 -1.33575 25.701 0.00949679 -0.0353359 0.00883999
148 1 -4.39483 -0.753547 22.9833 0.0157954 0.0507706 -0.0135682
164 1 -3.93707 -1.1917 24.0504 -0.0212758 0.03765 0.0118833
174 1 -3.181 -5.7643 23.0837 0.0222736 -0.00449981 0.0181465
7 1 0.175329 -1.08614 27.1312 -0.0141449 0.000488142 0.0431721
229 1 4.23797 -2.40205 22.2848 -0.0018869 -0.00543997 -0.0108043
230 1 3.93118 -1.47567 23.4271 -0.0378115 -0.0570518 -0.0126131
231 1 3.48585 -1.48356 24.8235 -0.018915 -0.0205353 -0.0111992
232 1 3.891 -1.55819 26.1963 -0.0108499 -0.00691359 -0.0239833
2 1 4.04958 -1.11022 27.6371 -0.0155352 0.00623578 0.00576382
177 1 -4.12251 4.04575 23.0342 -0.0290853 0.00781697 -0.0172356
193 1 -4.07965 5.10949 23.9467 0.00451935 -0.0137113 -0.0259948
194 1 -2.50934 5.73927 24.237 0.00645618 0.00292459 -0.0269065
49 1 -0.180538 1.48377 27.7293 0.0143089 0.0318066 0.0486384
178 1 -3.24584 6.19879 22.0493 0.0165804 -0.0195503 -0.0222216
38 1 1.96912 0.222344 27.6434 0.0157947 0.0525991 0.0393963
25 1 0.5516 0.374169 27.1149 0.00689001 -0.0162216 0.0346721
233 1 6.48224 4.3796 22.8577 -0.00420857 -0.0145504 -0.0466424
217 1 6.98784 5.11362 24.1998 0.0205877 0.00907967 -0.0245553
235 1 4.9478 6.21211 21.9742 0.00615661 -0.0127605 -0.0437529
195 1 -2.21077 6.57959 23.1114 0.00224854 0.000883784 -0.0175238
207 1 6.3865 6.54824 24.0541 0.00392949 -0.00563355 -0.0238515
218 1 5.53308 6.94071 23.0224 -0.00581708 -0.00817546 -0.019819
28 1 -1.34214 -2.43449 28.5231 0.0212712 0.0171783 -0.0145909
44 1 -2.96433 -1.82425 28.6141 0.00978877 -0.00290932 0.0137554
52 1 -0.535604 -3.58593 28.7684 -0.0169882 0.000253456 0.00549098
27 1 -1.41544 -0.167335 28.6613 -0.0119766 0.0125237 0.00243194
42 1 -2.5144 -0.69251 29.4351 -0.0282672 0.00612874 0.0291623
36 1 -0.642219 -4.57966 29.7662 0.0118614 -0.00380649 0.0298799
4 1 -1.36939 -0.517001 33.3208 0.0116123 0.00831884 0.0612878
3 1 -2.07383 -1.24128 32.3054 0.0194622 -0.0602982 0.0147769
18 1 -2.20902 -0.490742 31.0756 0.0203544 -0.0466783 0.0229158
26 1 1.12018 -1.69641 28.2703 -0.00499961 0.00566622 0.0220036
40 1 1.8467 -0.799207 28.6849 0.00196702 0.0161985 0.030349
50 1 1.04627 -3.05838 29.0039 0.0284738 -0.0106595 0.0453179
16 1 4.05565 -2.31778 29.7576 0.00693249 -0.0322253 0.0559333
35 1 1.86247 -3.98372 29.7878 0.00934647 0.0267954 0.0373582
59 1 3.49784 -3.61171 30.1676 0.0205996 0.0126721 0.026577
12 1 0.936061 -5.12135 29.7726 -0.0222137 0.0376702 0.0345205
15 1 3.5043 -1.57412 31.2313 0.00809323 0.00319007 0.00010473
57 1 3.38329 -2.83688 31.6462 -0.0117155 -0.0404078 0.0372977
11 1 2.42635 -3.28549 33.5712 0.00880724 -0.0258551 0.0565388
33 1 3.75362 -3.05413 33.2684 0.0320522 0.026531 0.0124965
46 1 4.03807 -1.52114 33.7733 0.00874278 -0.000836458 -0.00081406
204 1 5.26781 -3.84163 33.4278 0.0115827 0.0219148 -0.0267618
215 1 6.82951 -2.56463 33.652 -0.0149692 -0.0205657 0.00888263
188 1 6.38875 -3.99959 33.4601 0.02211 -0.0136932 0.0372298
205 1 7.08871 -1.20501 33.992 0.0292409 -0.0226379 0.0363718
22 1 4.50555 -0.409044 33.0471 0.0158229 -0.0154419 0.011733
39 1 4.06373 -0.282188 31.5778 -0.00351799 -0.0121884 0.00123612
51 1 -1.10444 1.10803 28.5965 -0.017342 -0.0149371 0.0333486
32 1 -1.41208 1.48941 29.9326 -0.045528 0.0321566 0.0255124
56 1 -1.75326 0.816403 31.1818 -0.0211802 -0.00956851 0.00989212
54 1 -0.824964 1.6246 32.729 -0.0028131 -0.0146654 0.0358496
17 1 -2.18876 1.78485 32.4754 0.0285268 0.00627673 0.0152471
10 1 -0.133756 2.44162 29.7245 -0.022201 -0.00541696 0.0712938
30 1 0.12249 2.73599 32.6359 0.00987398 -0.00439214 0.0223651
14 1 2.98394 1.15912 28.1038 0.0238305 0.0222068 0.0208775
216 1 6.11598 -0.0227707 33.434 0.0391189 -0.0313888 0.013436
31 1 0.729974 2.35676 28.627 0.0196667 -0.00127068 0.0135101
55 1 2.22102 2.20054 28.6853 0.00446864 -0.0156219 0.0303701
1 1 4.70394 0.734311 28.5264 -0.00492571 0.025441 0.0024498
53 1 2.96389 2.41117 29.8293 -0.0030656 0.000495929 0.0426046
13 1 4.31638 1.61803 29.935 0.0213104 -0.00270416 0.00829324
9 1 0.551577 2.94445 31.0618 -0.0146289 -0.0159024 0.0385793
29 1 2.26531 2.88832 30.9304 0.020496 -0.0307527 0.0261999
45 1 2.78636 2.66809 32.3817 0.00765703 -0.0138222 0.0327599
37 1 3.98581 1.25966 31.3469 0.0167574 0.0184574 -0.00352909
47 1 1.57693 2.78361 33.2328 -0.031478 -0.0137219 0.0194785
21 1 4.13818 2.1958 32.5132 0.0145772 0.0258775 0.0193123
5 1 4.53551 1.68988 33.819 0.00332892 -0.00589339 -0.0468393
206 1 6.06172 1.46496 33.8803 0.0155252 0.0064494 0.00733755
19 1 -0.516624 -0.930165 34.5291 -0.0091874 -0.0276259 0.0195145
58 1 0.614328 -1.15957 34.4948 -0.0116437 -0.00830581 0.0663686
34 1 1.82683 -1.8785 34.7016 0.0344369 0.0139545 0.0108748
48 1 2.8545 -0.931927 34.6181 0.0314239 0.000786542 0.0318117
190 1 7.20353 -0.526693 35.4496 0.0256601 0.00976484 -0.00105439
189 1 7.09798 -1.8204 35.7981 0.02321 -0.0223425 0.0295118
165 1 5.50008 -1.19681 37.1699 -0.00756713 0.00357076 -0.00249252
175 1 6.05726 -2.21596 36.5471 0.0218571 0.00343914 0.0202771
23 1 2.07814 2.1661 34.3931 -0.0445009 -2.71683e-05 0.0385264
6 1 3.38403 1.86071 34.7314 -0.0270075 -0.0376353 0.00714182
24 1 3.27986 0.394758 35.3466 -0.0164321 -0.0225615 0.0440054
41 1 3.85581 1.93586 37.7298 0.0201429 -0.0103884 0.0141856
192 1 7.01019 1.77609 34.9345 0.0368932 -0.0136052 0.0423982
43 1 2.82123 0.98143 36.6464 -0.0108438 0.00711857 0.0387234
176 1 5.66276 0.520166 36.859 0.0294479 0.0088748 0.00701573
166 1 4.91307 1.44398 37.4372 0.0350692 0.0437599 0.0125196
191 1 6.74993 0.58308 35.919 0.0181776 -0.0288904 -0.00354031
