ITEM: TIMESTEP
20700
ITEM: NUMBER OF ATOMS
330
ITEM: BOX BOUNDS pp pp pp
-1.4715758017245314e+01 1.5057610017245315e+01
-1.2710055654020760e+01 1.2664508654020761e+01
-5.0001035148846022e+01 1.0000103514884636e+02
ITEM: ATOMS id type x y z vx vy vz
61 1 -13.6674 -11.9461 19.9999 0 0 0
62 1 -13.1228 -10.6724 19.9999 0 0 0
63 1 -13.7825 -9.34696 19.9999 0 0 0
64 1 -13.0772 -8.00396 19.9999 0 0 0
65 1 -13.7542 -6.79742 19.9999 0 0 0
81 1 -11.507 -10.5408 19.9999 0 0 0
82 1 -11.5331 -8.01671 19.9999 0 0 0
91 1 -10.7591 -11.6424 19.9999 0 0 0
92 1 -10.8868 -9.2311 19.9286 0.00895468 0.00397535 -0.00509396
93 1 -10.916 -6.81051 19.8489 -0.00196245 -0.00789724 -0.00226004
101 1 -9.52473 -11.6468 19.9999 0 0 0
102 1 -8.74136 -10.5124 19.9999 0 0 0
103 1 -9.47622 -9.25552 19.8087 0.0078849 0.00340981 -0.00551236
104 1 -8.68157 -7.94383 19.7685 0.0106164 -0.0041654 0.00708719
105 1 -9.44011 -6.73902 19.8242 0.00585704 -0.00141253 0.0114114
121 1 -7.27873 -10.5146 19.9999 0 0 0
122 1 -7.37749 -8.04384 20.3593 -0.0260731 -0.00188998 0.0329186
131 1 -6.50232 -11.6488 19.9999 0 0 0
132 1 -6.63475 -9.26462 20.3319 -0.0029782 -0.0030836 0.0321575
133 1 -7.0275 -6.90652 21.2224 -0.00882087 -0.0219453 0.0312518
141 1 -5.25854 -11.6473 19.9999 0 0 0
142 1 -4.47674 -10.5145 19.9999 0 0 0
143 1 -5.19019 -9.41038 20.8737 -0.0186055 -0.00834156 0.0129468
144 1 -4.82145 -8.23585 21.483 -0.00827329 -0.0163889 0.00599297
145 1 -5.67586 -6.95058 21.7481 -0.0189403 -0.0142897 0.0352215
161 1 -3.01281 -10.5144 19.9999 0 0 0
162 1 -3.39229 -8.93206 21.9397 -0.0142128 -0.0140168 0.0307726
171 1 -2.23133 -11.6474 19.9999 0 0 0
172 1 -2.59921 -9.83767 21.2443 0.00488615 0.0133609 0.0185043
181 1 -0.986751 -11.6474 19.9999 0 0 0
182 1 -0.205108 -10.5143 19.9999 0 0 0
183 1 -1.05748 -9.80469 21.2353 0.0014149 0.0167869 -0.0151793
201 1 1.25901 -10.5143 19.9999 0 0 0
211 1 2.0406 -11.6474 19.9999 0 0 0
212 1 2.00724 -9.72743 21.2193 0.00173127 -0.00595234 -0.0164598
221 1 3.28523 -11.6473 19.9999 0 0 0
222 1 4.06705 -10.5143 19.9999 0 0 0
223 1 3.45598 -9.65252 21.127 -0.00192956 0.0183734 -0.0136563
224 1 4.24685 -8.5096 21.7099 0.00189431 -0.00711581 0.0248662
241 1 5.53108 -10.5143 19.9999 0 0 0
242 1 5.75701 -8.35484 21.4044 0.0230558 -0.002518 0.0174873
251 1 6.31174 -11.6474 19.9999 0 0 0
252 1 6.32645 -9.32592 20.544 -0.000800249 -0.0135509 0.0329403
253 1 6.52487 -7.09043 21.6584 0.0163952 -0.00218155 0.035649
261 1 7.55524 -11.6498 19.9999 0 0 0
263 1 7.62433 -9.1885 19.9852 0.0139769 -0.0125345 0.0220633
202 1 1.19517 -8.81676 21.9038 -0.0112358 -0.00136147 -4.97055e-05
265 1 7.79651 -6.92708 20.8081 0.0125695 -0.00744137 0.0441034
262 1 8.33779 -10.5154 19.9999 0 0 0
264 1 8.37737 -7.9584 19.8611 -0.00198881 -0.00280022 0.0260213
281 1 9.79556 -10.5245 19.9999 0 0 0
282 1 9.86687 -7.9389 19.6544 0.00212348 0.00418851 -0.00472271
291 1 10.5816 -11.6418 19.9999 0 0 0
292 1 10.4894 -9.20223 19.8275 -0.00679319 0.00050654 -0.00722861
293 1 10.5422 -6.66528 19.7999 -0.00451723 0.0102734 -0.000847454
301 1 11.8019 -11.7522 19.9999 0 0 0
302 1 12.7161 -10.5156 19.9999 0 0 0
303 1 11.8934 -9.22642 19.9999 0 0 0
304 1 12.655 -8.00627 19.9999 0 0 0
305 1 11.8992 -6.77596 19.9999 0 0 0
321 1 14.087 -10.4984 19.9999 0 0 0
322 1 14.0714 -8.01298 19.9999 0 0 0
66 1 -13.0658 -5.54976 19.9999 0 0 0
67 1 -13.7179 -4.30197 19.9999 0 0 0
68 1 -13.0406 -3.0891 19.9999 0 0 0
69 1 -13.6883 -1.86008 19.9999 0 0 0
70 1 -13.0424 -0.636745 19.9999 0 0 0
83 1 -11.5387 -5.54743 19.9999 0 0 0
84 1 -11.5566 -3.09089 19.9999 0 0 0
85 1 -11.5625 -0.637245 19.9999 0 0 0
94 1 -10.7412 -4.28929 19.9633 0.0164612 0.00779108 0.0122659
95 1 -10.7995 -1.88519 20.4416 -0.00476104 -0.00863522 0.0267064
106 1 -8.92082 -5.54828 20.5659 -0.0123055 -0.0110045 0.0379756
107 1 -9.39728 -4.21762 20.5069 -0.00425082 -0.00573211 0.0520684
108 1 -8.90049 -3.05567 21.3023 0.0023981 0.00244668 0.0402916
109 1 -9.58034 -1.78841 21.1671 -0.00637773 0.0109358 0.0330019
110 1 -8.79107 -0.571071 21.4234 -0.0163738 -0.0128615 0.0414986
125 1 -7.48539 -0.423625 22.0901 -0.00482769 0.00395231 0.0210684
124 1 -7.57911 -3.00251 21.9853 -0.00666803 0.000830957 -0.00513667
123 1 -7.73164 -5.6528 21.3272 -0.0235774 0.0139831 0.0118049
8 1 -0.656169 -1.46168 20.8092 0.0112912 -0.0332248 0.0213879
28 1 -1.45952 -2.29911 21.6856 0.00143042 -0.00144997 0.0404082
134 1 -7.07223 -4.40115 21.8959 -0.0172736 0.00144533 -0.0012215
42 1 -2.37856 -0.351192 21.8037 0.00247239 -0.0075726 0.0738206
27 1 -1.24871 -0.158468 21.0428 -0.00018594 -0.00469831 0.0179077
7 1 0.800754 -1.68826 20.4322 -0.0241922 0.00700862 -0.00897724
25 1 1.69226 -0.390355 20.2614 0.0122483 0.0085191 -0.00700311
26 1 1.81043 -2.52168 21.1031 -0.0137188 0.00902302 0.0285517
38 1 3.12149 -0.64481 20.9358 -0.0393466 0.0136472 0.0369272
40 1 3.37501 -1.97945 21.2636 0.00045282 -0.00358145 0.0304099
50 1 0.864328 -3.32345 21.8956 0.0097846 0.0169926 0.0355331
267 1 8.20686 -4.58619 21.7106 0.00591812 -0.0172567 0.0281498
266 1 8.65185 -5.62572 20.8822 0.0172355 -0.0165561 0.0300183
268 1 8.81903 -3.27011 21.8464 0.00542616 -0.00569384 0.0227723
283 1 9.91701 -5.40511 20.1573 -0.0084567 0.00503432 0.033658
284 1 10.0235 -2.96841 21.0376 0.0116403 -0.0123974 0.0291496
285 1 9.98876 -0.672351 21.4707 0.0174308 0.00428737 0.037474
294 1 10.5197 -4.1618 20.188 0.00848116 -0.0200925 0.0194602
295 1 10.6964 -1.74184 20.7585 0.0147496 -0.0224805 0.0273802
306 1 12.6496 -5.55341 19.9999 0 0 0
307 1 11.9041 -4.32686 19.9999 0 0 0
308 1 12.647 -3.09734 19.9999 0 0 0
309 1 11.9037 -1.86828 19.9999 0 0 0
310 1 12.6457 -0.637745 19.9999 0 0 0
323 1 14.0539 -5.56516 19.9999 0 0 0
324 1 14.0472 -3.10129 19.9999 0 0 0
325 1 14.0438 -0.638188 19.9999 0 0 0
71 1 -13.6826 0.591886 19.9999 0 0 0
72 1 -13.0424 1.82079 19.9999 0 0 0
73 1 -13.6895 3.04359 19.9999 0 0 0
74 1 -13.0413 4.27397 19.9999 0 0 0
75 1 -13.7195 5.48914 19.9999 0 0 0
86 1 -11.5623 1.82169 19.9999 0 0 0
87 1 -11.5564 4.27485 19.9999 0 0 0
96 1 -10.8876 0.615632 20.5468 -0.00166125 0.00633763 0.0228906
97 1 -10.7902 3.02583 20.1716 0.00337028 0.000352866 0.0276701
98 1 -10.9041 5.49044 19.8656 -0.0104738 -0.00144057 0.00301967
111 1 -9.56291 0.754089 21.1515 -0.0195951 0.00236191 0.0243421
112 1 -8.70214 1.96087 21.371 -0.0323207 0.0120693 0.0248133
113 1 -9.38445 3.08444 20.8638 -0.0203277 0.00959151 0.0431253
114 1 -8.90329 4.52117 21.0064 -0.000832529 0.0188059 0.0377231
115 1 -9.42169 5.48651 20.1817 0.0105003 0.0143108 0.0298056
127 1 -7.61604 4.65211 21.7571 -0.00203895 -0.00280716 0.0121801
51 1 -0.383308 1.04888 21.265 -0.0109421 0.0195418 -0.0148408
32 1 -0.683275 2.31328 21.837 -0.00785366 -0.0325055 0.0265343
138 1 -6.92513 5.96617 21.8593 -0.00998309 0.00412976 0.0197535
10 1 0.570001 2.91671 22.3013 -0.00718296 -0.00545213 0.0631727
49 1 1.00486 0.851906 20.6651 0.0162636 0.00451842 -0.00686479
31 1 1.53742 2.18538 21.4221 -0.0085463 -0.023292 0.0417057
14 1 3.64836 0.63958 21.3836 0.00320851 0.0117594 0.0394265
55 1 2.7731 1.72723 21.8183 -0.00738024 0.00268081 0.0622486
258 1 6.64781 5.55713 22.0949 0.0221193 -0.0102254 0.0146803
275 1 8.00769 5.55057 21.6175 0.0146871 -0.00782156 0.0253583
272 1 8.77913 1.76632 22.0579 0.0128501 -0.0250568 0.0176681
274 1 8.60298 4.20263 21.6803 0.00413124 -0.00601199 0.0240717
286 1 10.1028 1.73147 21.5191 0.0153051 0.0123234 0.0305134
287 1 9.97741 4.2046 21.0253 0.0275201 -0.00725396 0.02591
296 1 10.8715 0.507291 21.1443 0.0198033 0.00123231 0.021305
297 1 10.7742 2.92124 20.8214 0.0158909 0.000497558 0.0367446
298 1 10.46 5.46877 20.2847 -0.00257672 0.00376153 0.02621
311 1 11.9034 0.592385 19.9999 0 0 0
312 1 12.6457 1.82255 19.9999 0 0 0
313 1 11.9038 3.05326 19.9999 0 0 0
314 1 12.6466 4.28301 19.9999 0 0 0
315 1 11.9041 5.51379 19.9999 0 0 0
326 1 14.0439 1.82305 19.9999 0 0 0
327 1 14.0468 4.28589 19.9999 0 0 0
76 1 -13.0678 6.73987 19.9999 0 0 0
77 1 -13.743 7.99662 19.9999 0 0 0
78 1 -13.076 9.22053 19.9999 0 0 0
79 1 -13.6781 10.6114 19.9999 0 0 0
80 1 -13.0646 11.9529 19.9999 0 0 0
88 1 -11.5395 6.7281 19.9999 0 0 0
89 1 -11.5535 9.18478 19.9999 0 0 0
90 1 -11.7099 11.6077 19.9999 0 0 0
99 1 -10.8504 7.93999 19.8657 -0.0111872 0.00019763 -0.00327192
100 1 -10.9027 10.4758 19.9999 0 0 0
116 1 -8.70308 6.76764 20.0596 0.0025199 0.0123815 0.025015
117 1 -9.54605 7.94284 19.657 7.93229e-05 0.0076343 -0.00884034
118 1 -8.82448 9.15249 19.7002 -0.0106945 0.0118562 -0.000230102
119 1 -9.37207 10.4804 19.9999 0 0 0
120 1 -8.62688 11.6228 19.9999 0 0 0
130 1 -7.38724 11.6024 19.9999 0 0 0
128 1 -7.5777 6.92932 20.89 -0.00185253 0.00851437 0.0412139
129 1 -7.31667 9.21461 19.9597 0.00834183 -0.00344396 0.0171018
139 1 -6.7369 8.06316 20.6406 -0.00854664 0.00424567 0.0282508
140 1 -6.60892 10.469 19.9999 0 0 0
156 1 -4.59621 7.14173 22.0515 0.00404478 0.00330086 0.0472714
157 1 -5.3135 8.0732 21.1337 0.00353485 0.0140968 0.032541
158 1 -4.44213 9.22874 20.8678 -0.0209522 0.0214346 0.0159408
159 1 -5.14663 10.4689 19.9999 0 0 0
160 1 -4.36691 11.6023 19.9999 0 0 0
169 1 -3.03304 9.45175 21.0816 -0.00917526 0.0269833 0.00173492
170 1 -3.12269 11.6018 19.9999 0 0 0
179 1 -2.29572 8.45522 21.8395 0.0118083 0.0301818 0.0123096
180 1 -2.34103 10.4689 19.9999 0 0 0
198 1 -0.0947471 9.80378 21.2942 0.012141 0.000239306 0.000317262
199 1 -0.876963 10.4688 19.9999 0 0 0
200 1 -0.0953724 11.6018 19.9999 0 0 0
209 1 1.30481 9.83762 21.268 0.0128608 -0.0172059 -0.00950889
210 1 1.14924 11.6018 19.9999 0 0 0
220 1 1.93091 10.4688 19.9999 0 0 0
237 1 3.60555 8.61295 21.9995 0.017582 0.000347059 0.00658789
238 1 4.25072 9.49272 21.0043 0.00926653 0.0143597 0.00540622
239 1 3.39506 10.4687 19.9999 0 0 0
240 1 4.17656 11.6018 19.9999 0 0 0
248 1 5.81308 6.97323 21.8762 -0.00179249 0.0168899 0.0179538
249 1 5.65057 9.33703 20.9139 -0.000103086 0.019564 0.0224886
250 1 5.4212 11.6017 19.9999 0 0 0
259 1 6.4384 8.10946 21.1494 -0.00155472 0.0035155 0.0353847
260 1 6.20335 10.4685 19.9999 0 0 0
277 1 7.75211 7.95792 20.4848 0.00620358 0.00373308 0.0304051
276 1 8.46662 6.65186 20.6525 0.00796454 0.00339879 0.0418567
278 1 8.40245 9.15639 19.9523 -0.000542079 -0.00947675 0.0130489
279 1 7.66711 10.4687 19.9999 0 0 0
280 1 8.44529 11.6024 19.9999 0 0 0
288 1 9.78605 6.71262 20.0377 -0.00721452 -0.0166966 0.025086
289 1 9.75579 9.25938 19.7869 -0.0101166 -0.0122612 -0.00278485
290 1 9.6873 11.6101 19.9999 0 0 0
299 1 10.5114 8.06968 19.8175 0.000867794 -0.0120612 0.00123608
300 1 10.4752 10.4755 19.9999 0 0 0
316 1 12.6473 6.74288 19.9999 0 0 0
317 1 11.9051 7.97805 19.9999 0 0 0
318 1 12.6583 9.19198 19.9999 0 0 0
319 1 11.9246 10.4937 19.9999 0 0 0
320 1 12.7709 11.5297 19.9999 0 0 0
328 1 14.0456 6.75188 19.9999 0 0 0
329 1 14.0237 9.17042 19.9999 0 0 0
330 1 13.9415 11.792 19.9999 0 0 0
173 1 -2.79936 -7.93439 22.7179 0.00338817 -0.020108 0.00480616
184 1 -0.372906 -8.86293 22.0641 -0.0039647 -0.0105629 -0.00175698
185 1 -1.35042 -8.08123 22.9472 0.00977167 -0.0258233 0.000774519
186 1 -0.396694 -7.03071 23.5778 -0.0100597 -0.0159824 -0.00744459
225 1 3.52425 -7.42657 22.4642 -0.00770685 -0.0172057 0.0115038
213 1 2.05537 -7.72437 22.626 0.00719738 -0.036068 -0.00475346
203 1 1.17594 -6.78039 23.3215 0.0178841 -0.00980271 -0.00436885
44 1 -2.28337 -1.37753 22.5255 0.00908287 0.00353078 0.0504743
52 1 -0.513453 -3.14703 22.4529 -0.00809991 -0.00102962 0.0640933
135 1 -6.80421 -1.70459 22.3448 -0.00560831 -0.00505713 0.00444569
146 1 -5.0161 -5.87162 22.4528 0.00210593 -0.0345012 0.0173679
20 1 -2.52973 -1.5684 23.8074 0.00897687 -0.0285361 0.0377782
36 1 -0.881814 -2.99466 23.8638 -0.0019282 -0.00938425 0.0385335
147 1 -5.65633 -4.47641 22.3214 0.00441254 -0.0359564 0.0263146
163 1 -3.57802 -6.50075 22.7874 0.00783201 -0.0450373 -0.0235883
4 1 -2.47881 -0.231132 24.9194 0.0575897 0.0113568 0.0731464
60 1 -2.4807 -2.82732 24.0026 -0.00119541 0.00111023 0.00988304
19 1 -1.9389 -0.64516 26.282 0.00241716 0.0248641 0.0451665
58 1 -1.44393 -1.95585 26.066 0.0201426 0.0122456 0.0684865
148 1 -4.7545 -3.55026 22.7702 -0.000429488 -0.00693185 0.0143823
149 1 -5.315 -1.95721 22.722 0.00545809 -0.00408681 0.0109942
34 1 0.0418139 -2.16157 26.5335 0.0120063 0.00781475 0.0480096
150 1 -5.14044 -0.458368 22.6556 0.0179309 -0.00392365 0.0169795
164 1 -3.30932 -4.04614 23.4827 0.00635683 -0.00694942 0.0118539
174 1 -2.72711 -5.53887 23.4272 0.0242221 -0.0152312 -0.0192973
187 1 -1.4531 -6.13433 23.9771 -0.0041028 0.0116713 -0.0108359
16 1 3.57481 -1.94651 22.6005 -0.00950959 0.00425061 0.0353913
243 1 5.78065 -5.9438 22.1102 -0.00338337 0.00877412 0.00661164
254 1 6.69179 -4.83016 22.2363 0.00209283 -0.030307 0.0194324
35 1 1.5214 -3.34276 23.2483 0.00115246 0.011867 0.0540535
2 1 3.33533 -0.6812 23.1322 -0.0068078 -0.00774075 0.0620328
59 1 2.64004 -2.85937 23.3812 -0.0177432 -0.0081159 0.0396407
226 1 4.17294 -6.10546 22.4529 0.00201162 -0.0291293 0.0117951
12 1 0.471273 -3.15845 24.4106 -0.00472652 0.00498667 0.0333739
255 1 6.76887 -2.32187 22.8756 -0.000789211 0.00348213 0.0342125
48 1 0.802892 -1.04221 26.696 0.0191342 0.0123636 0.0551136
11 1 0.78544 -3.09062 25.8074 0.0317801 0.0089674 0.0712303
15 1 2.67878 -0.992969 24.4407 0.00544135 0.0224874 0.0477827
244 1 6.03454 -3.72227 22.8749 0.00158379 -0.00339054 0.0101988
57 1 2.87573 -2.52616 24.8123 0.0200888 -0.00687773 0.0103121
227 1 3.53589 -5.17704 23.2474 0.0129321 -0.0307366 0.0109087
46 1 2.12546 -1.56437 26.9677 0.000408543 0.00717915 0.058001
228 1 4.56025 -3.83799 23.5646 -0.0292908 -0.0220199 0.0123123
245 1 6.41552 -1.15955 23.7131 0.015438 0.00488409 0.0247464
33 1 2.09835 -2.94754 26.3966 -0.0182548 -0.0237932 0.0161037
229 1 4.41293 -2.49776 24.403 -0.000531119 -0.0234422 0.0137916
214 1 2.27186 -5.7577 23.448 -0.0036591 -0.0360332 0.0231428
230 1 5.48357 -1.56664 24.6694 -0.00450606 -0.00222983 0.0163932
204 1 2.84031 -3.38256 27.7829 0.00784698 0.00413232 0.0390985
22 1 3.17921 -0.555109 26.599 0.013155 0.0160818 0.0532046
231 1 5.2081 -0.651083 25.9948 -0.00692178 0.0012974 0.0381117
269 1 8.18029 -2.09481 22.3358 0.0071964 -0.0117659 0.0243606
270 1 8.69553 -0.762795 22.1823 -0.00305731 0.00157292 0.0233556
126 1 -7.52765 2.1613 22.2538 -0.00812872 0.00528319 0.0208406
18 1 -2.57347 0.843317 22.6146 -0.00390627 -0.0232566 0.0392833
56 1 -2.06524 2.136 22.5225 -0.0168911 -0.002889 0.0458234
137 1 -6.91509 3.44742 22.2328 0.00537208 0.0187257 0.0249466
155 1 -5.55183 6.01407 22.3728 -0.00929918 -0.00575067 0.0103015
136 1 -6.86891 0.88152 22.5252 0.0205113 0.0133198 -0.0127554
54 1 -2.11571 2.94988 23.9625 -0.00556588 0.0121806 0.033428
3 1 -3.15407 0.910907 24.1067 0.00730926 -0.0131358 0.0529566
30 1 -0.835551 3.09448 24.5674 -0.00132504 0.0193476 0.0279789
178 1 -2.54138 6.22306 22.8962 -0.00112677 0.0143975 0.00844932
151 1 -5.41202 0.976695 22.8227 0.0237832 -0.00771009 0.0132367
153 1 -5.57146 3.5385 22.896 -0.0179734 0.000279692 0.0165465
154 1 -4.94025 4.75685 22.9319 -0.0503427 0.00778934 -0.00968909
17 1 -3.49236 2.26385 24.1503 0.0181272 0.0175224 0.0136674
47 1 -0.764987 3.57587 25.8637 0.0134624 -0.00958719 0.0482879
152 1 -4.77733 2.33284 23.229 -0.00486492 0.000643844 0.0210456
167 1 -3.61398 5.26407 23.3947 -0.0229173 0.0117158 -0.000632786
195 1 -1.0937 6.25747 23.4949 -0.0174808 0.00908095 0.0201216
43 1 -1.12124 0.432701 27.1644 0.0131412 0.0199371 0.0139213
41 1 -1.18768 1.12148 28.4248 0.00208993 -0.0344626 0.0852625
23 1 -0.402091 3.06845 26.9992 0.0334366 0.0318015 0.0598866
194 1 -1.15078 5.34639 24.77 -0.0218519 0.00341899 0.0218597
177 1 -3.73281 5.64581 24.8428 -0.0268415 -0.00575696 0.00448111
193 1 -2.43941 6.04241 25.4181 -0.0421619 -0.0313605 0.0122009
216 1 4.46867 -0.0682104 27.5589 -0.0134123 -0.0344264 0.032818
24 1 0.279905 0.586429 26.9473 0.00737532 -0.00184605 0.0623528
1 1 4.23128 0.423022 22.7255 -0.0166945 0.00668344 0.060985
53 1 3.00191 2.11207 23.2946 -0.00845409 -0.0147281 0.0464786
9 1 0.584596 3.14676 23.6631 -5.80211e-05 0.0172532 0.0448259
29 1 1.91005 2.48384 24.0086 0.0107324 0.019345 0.0654811
13 1 4.45065 1.59833 23.6389 0.0021306 -0.0257839 0.0395003
247 1 6.05845 4.5027 22.8737 0.0184617 0.0205055 0.0344333
257 1 6.66258 2.91319 22.8331 0.0199616 0.0101616 8.42576e-05
39 1 2.70027 -0.0290774 25.3981 0.0140621 -0.0181216 0.0422446
235 1 3.90548 6.17783 22.6408 0.0023177 0.00687771 0.0135784
256 1 6.77515 0.338041 23.3801 -0.0165633 -0.000647945 0.0242864
45 1 2.48707 3.40656 24.9563 0.0185331 -0.00171709 0.0173698
37 1 4.00702 1.13883 25.1241 0.0109314 -0.00398531 -0.0107577
218 1 2.53984 6.20018 23.1969 0.0080742 0.0381695 0.0246778
234 1 4.91316 5.35307 23.3612 0.012713 0.0165339 0.0103958
246 1 6.1263 1.68372 23.2207 -0.00246543 0.00107963 0.00816908
6 1 1.02984 1.84231 27.18 0.0284846 0.0398909 0.0484675
21 1 3.23234 2.3329 25.651 0.0152725 0.0359659 0.0458877
207 1 2.46502 5.10222 24.5838 -0.00391792 0.00331087 0.0142834
5 1 2.70374 1.70682 27.0598 0.0328692 0.00376078 0.0109319
232 1 5.74251 0.706678 25.6175 0.0106241 -0.00167209 0.0633928
233 1 4.72283 5.77777 24.773 0.0182879 0.00678666 0.0150249
206 1 3.5353 1.01999 28.222 -0.00812531 -0.0221692 0.0555358
217 1 3.56855 5.38315 25.6183 0.0369343 0.0304365 0.00581377
273 1 8.03002 2.94487 22.3147 0.033374 -0.0060397 0.0237446
271 1 8.08661 0.500925 22.7768 -0.0258828 -0.00102023 0.0305908
168 1 -3.2136 7.52209 22.5063 -0.00778038 0.0177101 0.0161095
197 1 -0.759991 8.62608 22.1242 -0.0186918 -0.000178845 0.00339564
196 1 -0.0143074 7.42863 22.992 0.0111612 4.8425e-05 -0.0106733
219 1 2.09648 8.61712 22.0908 0.0161376 -0.0176509 0.00139808
236 1 4.57352 7.4365 22.32 -0.00605363 0.00497723 0.00733872
208 1 1.59122 7.36342 22.8131 0.0025319 0.00538041 -0.00210451
165 1 -0.269572 -0.781559 31.0633 0.0405062 -0.00634181 0.0663013
215 1 3.81703 -2.57422 28.7744 -0.00508942 -0.000622718 0.0415175
175 1 0.659631 -2.06734 31.0358 0.0588215 -0.0215368 0.0986494
188 1 2.2077 -3.39247 29.2629 0.0246134 0.00643129 0.0263193
205 1 3.98594 -1.04635 28.9944 0.0480511 -0.0117129 0.0332868
189 1 1.63839 -2.18766 30.0752 0.0659405 0.0193368 0.0381307
190 1 2.5695 -0.898249 29.6842 0.0338254 0.0138013 0.0671092
166 1 -0.248102 1.38556 29.5241 0.0268974 -0.0216529 0.0235103
176 1 0.461342 0.24552 30.356 0.0152041 0.0238671 0.0305706
191 1 1.95496 0.163136 30.4101 0.0195759 -0.0119612 0.02424
192 1 2.94195 1.10687 29.8848 0.00373273 0.0118281 0.0150086
