ITEM: TIMESTEP
17800
ITEM: NUMBER OF ATOMS
60
ITEM: BOX BOUNDS pp pp pp
-1.4715758017245314e+01 1.5057610017245315e+01
-1.2710055654020760e+01 1.2664508654020761e+01
-5.0001035148846022e+01 1.0000103514884636e+02
ITEM: ATOMS id type x y z vx vy vz c_coord
8 1 -0.324673 -1.26485 12.6022 0.00154251 9.59881e-05 -0.0217754 3
27 1 -1.05249 -0.0421944 12.6071 0.00865975 -0.000400916 -0.0157039 3
28 1 -1.08615 -2.24809 13.3379 0.00904013 -0.00180657 -0.0148028 3
42 1 -2.24838 -0.199703 13.3747 0.00111593 0.00181427 -0.0182265 3
44 1 -2.26315 -1.56901 13.8179 0.000811755 -0.000599972 -0.015005 3
52 1 -0.404376 -3.13137 14.1969 0.00607149 -0.0031483 -0.0198051 3
20 1 -2.76751 -1.82633 15.1604 0.00609673 0.00372733 -0.0232864 3
7 1 1.13215 -1.29261 12.6286 0.000816444 -0.00215806 -0.021305 3
25 1 1.86502 -0.047941 12.6244 2.84236e-05 0.00248121 -0.0179153 3
26 1 1.8352 -2.24261 13.4059 -0.00133368 0.00118875 -0.0211224 3
38 1 2.96788 -0.230423 13.4898 -0.016006 0.00146585 -0.0198633 3
40 1 2.94958 -1.57164 13.9719 -0.00229399 0.00234011 -0.0208171 3
50 1 1.02573 -3.0905 14.2561 -0.00543235 -0.000978017 -0.0149061 3
16 1 3.26468 -1.79409 15.3778 -0.00417971 -0.00588134 -0.0115036 3
32 1 -0.799992 2.22794 13.5429 0.00909337 -0.000765398 -0.0222447 3
51 1 -0.330573 1.1661 12.7001 0.00393313 0.000252589 -0.0120285 3
18 1 -2.75545 0.814653 14.2435 0.00851963 0.00357754 -0.0144175 3
56 1 -2.0011 2.04175 14.3187 0.00392863 0.00446541 -0.0199683 3
10 1 0.377217 2.89262 14.0275 -0.000380574 0.00698257 -0.0209132 3
31 1 1.52648 2.21958 13.566 -0.00251651 0.00290281 -0.0213661 3
49 1 1.11596 1.17493 12.719 -0.000689628 -0.00237772 -0.0160345 3
14 1 3.38632 0.837133 14.387 -0.000326454 0.000633476 -0.00681069 3
55 1 2.69467 2.1128 14.3837 0.00544168 0.000578122 -0.012877 3
9 1 0.306663 3.31121 15.3835 0.00108445 0.00647904 -0.0176033 3
36 1 -0.885657 -3.45778 15.4799 0.00114511 -0.0060922 -0.0148548 3
4 1 -3.22884 -0.740814 15.9819 0.00533959 0.000228923 -0.0162664 3
60 1 -2.04371 -2.77493 15.9363 -0.00165337 0.00241939 -0.0153112 3
19 1 -2.80649 -1.05078 17.2756 0.00462743 0.00187042 -0.0116439 3
58 1 -2.06936 -2.30187 17.2756 -0.000520751 -0.00114822 -0.0209268 3
34 1 -0.918251 -2.46586 18.1277 -0.000549032 -0.000684698 -0.017453 3
48 1 -0.427477 -1.25295 18.7368 0.00936807 0.00530963 -0.0136548 3
24 1 -1.14602 -0.0973646 18.7515 0.00248004 -0.000398936 -0.0163473 3
11 1 0.271432 -3.16356 17.7728 0.00503709 -0.00384249 -0.0147857 3
12 1 0.253424 -3.57482 16.3897 0.00553167 -0.00944799 -0.0200424 3
35 1 1.42794 -3.30193 15.6206 0.00749649 -0.00308028 -0.01274 3
2 1 3.70362 -0.716543 16.1951 0.000667005 0.00493809 -0.00844833 3
59 1 2.58861 -2.72354 16.1952 -0.00457216 0.00347771 -0.00879594 3
15 1 3.36733 -1.04904 17.5368 0.00433684 -0.00271725 -0.0149243 3
57 1 2.6565 -2.34378 17.5321 0.00153139 -0.00497725 -0.0164605 3
33 1 1.47049 -2.51962 18.2903 0.00148533 -0.00408206 -0.0122959 3
46 1 0.977425 -1.28573 18.8465 0.00172921 -0.00459803 -0.0172312 3
22 1 1.68074 -0.085371 18.9186 0.00132127 -0.0032176 -0.0171821 3
3 1 -3.28561 0.582668 15.5559 0.00539275 -0.0031012 -0.018634 3
54 1 -2.02718 2.59996 15.6309 -0.00163142 0.000736861 -0.0121965 3
30 1 -0.850877 3.28355 16.1394 -0.0054075 0.000833689 -0.0188294 3
17 1 -2.79044 1.66758 16.3975 0.00474314 0.00178559 -0.0171057 3
41 1 -2.42299 1.36919 17.769 0.00485805 -0.000139117 -0.0194869 3
47 1 -0.45438 3.1001 17.4585 0.00174245 0.000466597 -0.0173581 3
6 1 -0.456349 1.13007 18.7676 0.00672136 -0.00476818 -0.00801301 3
23 1 -1.25818 2.14661 18.1997 0.000925861 -0.00292582 -0.0150837 3
43 1 -2.35731 0.0277832 18.0993 0.00249666 0.000244964 -0.0213298 3
1 1 3.7731 0.598471 15.7366 -0.00770582 -0.00539464 -0.018345 3
53 1 2.65306 2.65896 15.7205 -0.00297394 0.000456515 -0.0130772 3
29 1 1.39582 3.20659 16.1884 -0.000241779 0.00813137 -0.0139099 3
13 1 3.30916 1.68773 16.5332 -1.69037e-05 0.000280283 -0.0177439 3
37 1 2.93932 1.4351 17.9077 0.0046775 0.00470617 -0.0122385 3
45 1 1.01659 3.11188 17.5567 0.00486819 -0.00122614 -0.0196689 3
5 1 0.924504 1.12314 18.8746 -0.0047528 0.00618394 -0.0169795 3
21 1 1.75562 2.13056 18.3345 0.00177313 -0.000665774 -0.0115763 3
39 1 2.9457 0.0844084 18.3558 0.0112545 -0.00045144 -0.0130371 3
