ITEM: TIMESTEP
14300
ITEM: NUMBER OF ATOMS
60
ITEM: BOX BOUNDS pp pp pp
-1.4715758017245314e+01 1.5057610017245315e+01
-1.2710055654020760e+01 1.2664508654020761e+01
-5.0001035148846022e+01 1.0000103514884636e+02
ITEM: ATOMS id type x y z vx vy vz c_coord
8 1 -0.565273 -1.34787 13.5461 0.00324695 -0.00275594 -0.00546398 3
27 1 -1.24511 -0.108487 13.5112 0.000875455 -0.00263882 -0.0106904 3
28 1 -1.25158 -2.1647 14.4669 0.00399591 0.00344224 -0.00703157 3
42 1 -2.39222 -0.250534 14.364 0.00259443 -0.00452094 -0.00403993 3
44 1 -2.4123 -1.5598 14.9853 -0.000439608 -0.00288724 0.00333911 3
52 1 -0.577474 -2.99035 15.3501 0.00259785 -0.0018825 0.00423323 3
7 1 0.869334 -1.30901 13.5776 -0.00611733 0.00305765 -0.0069097 3
25 1 1.66038 -0.117111 13.6317 -0.00341976 -0.00418337 -0.00246979 3
26 1 1.61227 -2.17342 14.4876 -0.00955611 0.00113579 0.000443728 3
38 1 2.77887 -0.218763 14.5051 -0.00236342 0.002853 0.00389141 3
40 1 2.78595 -1.55794 15.0007 0.00200204 -0.00560807 0.00177931 3
50 1 0.863307 -3.00822 15.3916 -0.000219944 0.00147945 -0.00445271 3
10 1 0.186127 2.78146 15.0558 -0.00241088 8.65306e-05 -0.00823382 3
32 1 -0.961296 2.17435 14.4294 0.000457636 0.00739933 0.000406078 3
51 1 -0.551706 1.10776 13.5528 0.00143538 -0.000180748 0.000294226 3
18 1 -2.86928 0.773347 15.239 -0.00563642 0.00515359 -0.00236569 3
56 1 -2.06554 1.96917 15.2967 0.000494966 -0.0031719 0.00012146 3
31 1 1.29501 2.12104 14.568 -0.00264231 -0.00133248 -0.00219902 3
49 1 0.881761 1.10519 13.6223 -0.000368409 -0.00232005 0.00065491 3
14 1 3.1847 0.810139 15.3798 0.00125225 0.00483632 -0.00129629 3
55 1 2.46512 2.04397 15.3677 -0.00343612 0.0037871 0.00153186 3
20 1 -2.90478 -1.79793 16.3122 0.000128416 0.00350488 0.000195002 3
36 1 -1.04555 -3.27649 16.6871 0.00110929 -0.00305093 -0.00692787 3
4 1 -3.36485 -0.720004 17.1305 0.00149891 -0.00589263 9.59286e-05 3
60 1 -2.24718 -2.69989 17.2126 0.00179188 0.00465562 -0.00232676 3
12 1 0.12878 -3.42647 17.5 -0.000568582 -0.0029621 0.0091045 3
19 1 -2.91975 -0.919138 18.485 0.00913566 0.00455988 0.00164089 3
58 1 -2.24854 -2.1749 18.5515 0.00324568 -0.00423 -0.00250079 3
11 1 0.104772 -2.98373 18.867 0.00117634 0.00162953 -0.00232206 3
34 1 -1.11814 -2.38693 19.3703 0.00308018 -0.000310434 0.00221626 3
48 1 -0.691504 -1.26774 20.1788 -0.00541774 0.00409858 0.00939047 3
24 1 -1.41612 -0.0164988 20.1888 0.00667619 0.000443992 0.000712771 3
16 1 3.21264 -1.72942 16.3804 0.00148126 0.00526269 0.00487713 3
35 1 1.27429 -3.2178 16.7392 0.000498524 -0.00576196 0.00143703 3
2 1 3.63976 -0.681976 17.2544 -0.00230092 0.00051544 -0.000211464 3
59 1 2.44978 -2.61307 17.2286 0.00087741 -0.00084292 -0.00529237 3
15 1 3.19119 -0.922847 18.5751 -0.00641276 -0.00106425 0.000457479 3
57 1 2.45796 -2.15806 18.6004 0.00167416 0.00355741 -0.00490207 3
33 1 1.25127 -2.24959 19.3508 -0.00107226 -0.00216394 0.00675947 3
46 1 0.763782 -1.22941 20.1499 -0.00197146 -0.0062781 0.00455489 3
22 1 1.52745 -0.052366 20.1587 -0.000812646 0.00117749 0.00919523 3
9 1 0.189796 3.23894 16.4175 0.00198004 0.00256241 -0.00451612 3
3 1 -3.35712 0.543348 16.59 0.0051823 0.00110305 0.00163963 3
54 1 -2.11344 2.44958 16.6235 0.00132175 0.00294028 0.000252343 3
30 1 -0.983953 3.11803 17.2177 0.00143244 0.00413589 0.00622278 3
17 1 -2.92547 1.62017 17.4516 0.00604982 0.000387589 -0.000241688 3
41 1 -2.58217 1.44337 18.8537 0.0128998 -0.006791 -0.00352638 3
47 1 -0.626717 2.98539 18.5971 -0.00277268 0.0022189 -0.000333932 3
6 1 -0.678607 1.1719 20.1874 -0.00293979 -0.000858042 0.00319951 3
23 1 -1.40057 2.09728 19.3744 0.0045597 -0.00460667 -0.00274401 3
43 1 -2.58481 0.138771 19.3886 0.00569641 -0.000687752 -0.00672966 3
1 1 3.62468 0.587858 16.7632 -0.00361481 0.00316568 0.00773528 3
53 1 2.46929 2.52926 16.7387 -0.0010822 -0.000911177 -0.00401245 3
29 1 1.29832 3.16039 17.2748 0.00131117 -0.00281966 0.00739358 3
13 1 3.20125 1.67628 17.6473 -0.0060851 -0.00535628 0.00430943 3
37 1 2.73491 1.43995 18.9487 0.00304618 -0.00240322 -0.00293025 3
45 1 0.831507 2.97909 18.5944 0.00663809 0.0014531 -0.000753901 3
5 1 0.780957 1.18266 20.1418 0.000135193 0.00540435 0.0108139 3
21 1 1.59678 2.09725 19.4331 -0.00601806 -0.00415723 0.00364114 3
39 1 2.77828 0.161195 19.4642 -0.00459874 -0.00148324 -0.00408309 3
