ITEM: TIMESTEP
20900
ITEM: NUMBER OF ATOMS
60
ITEM: BOX BOUNDS pp pp pp
-1.4715758017245314e+01 1.5057610017245315e+01
-1.2710055654020760e+01 1.2664508654020761e+01
-5.0001035148846022e+01 1.0000103514884636e+02
ITEM: ATOMS id type x y z vx vy vz c_coord
8 1 0.0196388 -1.30116 9.67429 -0.00543478 0.00536976 -0.0132384 3
28 1 -0.70763 -2.19978 10.4745 0.00159187 -0.010496 -0.0141486 3
42 1 -1.84004 -0.192044 10.5528 -0.00128244 -0.000449755 -0.0164739 3
44 1 -1.87161 -1.56909 10.9952 0.00352349 -0.00221531 -0.023325 3
52 1 -0.0641981 -3.18473 11.3187 0.00212122 -0.00702367 -0.0202028 3
20 1 -2.40918 -1.75905 12.2919 0.00756491 0.00326436 -0.0197045 3
36 1 -0.583454 -3.4176 12.6165 0.00579638 -0.00623544 -0.0210135 3
4 1 -2.93809 -0.747541 13.1111 0.00567193 -0.00371651 -0.0180856 3
60 1 -1.77184 -2.73667 13.1058 0.00107799 -0.00230884 -0.0207003 3
19 1 -2.58507 -1.06315 14.5065 0.00203018 -0.00103586 -0.0158873 3
58 1 -1.7938 -2.2584 14.4624 0.00116639 0.000507494 -0.0155498 3
7 1 1.46627 -1.22113 9.74726 0.000754217 0.00280192 -0.00988328 3
26 1 2.09317 -2.14283 10.5903 0.00405918 -0.00233467 -0.0235732 3
38 1 3.30559 -0.155519 10.7081 0.000447721 -0.000374447 -0.00426266 3
40 1 3.24733 -1.50348 11.2054 0.00418501 0.000586963 -0.0158345 3
50 1 1.38149 -3.07868 11.3796 -0.00337799 -0.00811696 -0.0241356 3
16 1 3.71477 -1.76551 12.4831 0.00277521 -0.00298939 -0.0184692 3
35 1 1.77795 -3.31831 12.7022 0.00599051 -0.00132195 -0.0230543 3
12 1 0.572734 -3.47273 13.4892 0.00067343 -0.00417449 -0.0260138 3
2 1 4.08025 -0.743698 13.3973 0.00576834 -0.00369078 -0.0155519 3
59 1 2.98348 -2.75266 13.2521 0.00804394 -0.00381687 -0.0231194 3
11 1 0.517459 -2.98634 14.7972 0.00190943 -0.00380053 -0.0195287 3
15 1 3.6124 -1.06748 14.7346 0.00107382 0.00238726 -0.019744 3
57 1 2.89439 -2.29197 14.6067 -0.000895694 -0.00659169 -0.0133079 3
27 1 -0.67549 -0.0262148 9.74372 0.00123007 0.000222107 -0.0223356 3
32 1 -0.455345 2.23385 10.667 -0.00055699 0.00757313 -0.0233227 3
51 1 0.00517847 1.246 9.71647 0.00252227 -0.000186223 -0.0224743 3
18 1 -2.36073 0.892882 11.3716 -0.00120327 0.00414901 -0.0226161 3
56 1 -1.62809 2.09418 11.4409 0.00201342 0.00302102 -0.0236904 3
3 1 -2.86674 0.591068 12.6764 0.00339817 -0.000144334 -0.023443 3
54 1 -1.70532 2.58362 12.7953 0.00524262 -0.00148655 -0.0268298 3
30 1 -0.600307 3.24701 13.3311 0.00705257 0.00645809 -0.0133319 3
17 1 -2.55071 1.68386 13.5398 0.0106966 0.00280672 -0.0226108 3
41 1 -2.09824 1.32683 14.8691 0.00632291 -0.00228021 -0.0209351 3
47 1 -0.183493 2.99479 14.6669 -0.00389286 0.00102431 -0.0169563 3
25 1 2.17977 -0.0142752 9.8029 -0.00758791 0.00131446 -0.0120915 3
10 1 0.694531 2.82364 11.2933 0.0041913 0.00513383 -0.0178762 3
31 1 1.91129 2.21866 10.7489 -0.00692248 0.00661056 -0.0130792 3
49 1 1.47159 1.22838 9.81502 0.000436028 0.0003852 -0.0101328 3
14 1 3.72286 0.920411 11.5758 0.00230039 0.00448697 -0.0217941 3
55 1 2.99423 2.10582 11.6368 0.00238503 -0.00184804 -0.027178 3
9 1 0.602905 3.35472 12.588 0.00195254 -0.00340143 -0.0114764 3
1 1 4.06193 0.623979 12.9522 -0.00123306 0.00398419 -0.0160567 3
53 1 2.92074 2.58138 13.0108 0.00355366 -0.00111378 -0.0204936 3
29 1 1.74157 3.28068 13.457 -0.00314813 0.00424828 -0.0169784 3
13 1 3.67692 1.68224 13.8306 0.00337747 0.00213697 -0.0174051 3
37 1 3.1784 1.34803 15.1553 -0.00314852 -0.000905062 -0.0126239 3
45 1 1.25793 2.9539 14.7848 0.00789833 0.00373821 -0.0176461 3
34 1 -0.692701 -2.41378 15.3001 -0.0039666 0.00285416 -0.0192803 3
48 1 -0.24607 -1.39385 16.1741 -0.00161619 -0.00484656 -0.0118113 3
24 1 -0.954683 -0.158637 16.157 0.00657659 -0.00224866 -0.016497 3
33 1 1.685 -2.36516 15.3681 0.00439051 -0.00208527 -0.0205097 3
46 1 1.19869 -1.36158 16.2432 0.000419536 -0.00479985 -0.0116208 3
22 1 1.98449 -0.129479 16.348 0.00445028 0.00201936 -0.0159487 3
6 1 -0.242615 0.986069 16.1989 0.000640013 4.09243e-05 -0.0157739 3
23 1 -0.889731 1.95323 15.3577 0.004974 0.00753886 -0.0231849 3
43 1 -2.08503 -0.0270962 15.3333 0.010209 0.00252914 -0.0191863 3
39 1 3.13761 -0.0136578 15.5754 0.000816005 0.000540368 -0.0127967 3
5 1 1.18374 1.02299 16.3433 0.00319316 -0.00289591 -0.0211794 3
21 1 1.93954 1.94539 15.5356 0.000307562 0.00946432 -0.0217356 3
