ITEM: TIMESTEP
3700
ITEM: NUMBER OF ATOMS
60
ITEM: BOX BOUNDS pp pp pp
-1.4715758017245314e+01 1.5057610017245315e+01
-1.2710055654020760e+01 1.2664508654020761e+01
-5.0001035148846022e+01 1.0000103514884636e+02
ITEM: ATOMS id type x y z vx vy vz c_coord
8 1 -0.71463 -1.39124 7.82735 0.00378064 0.00128809 0.0142823 3
20 1 -2.87171 -1.71828 10.7163 0.00499404 0.00156924 0.014326 3
27 1 -1.41587 -0.146753 7.80133 -0.000742058 -0.00127747 0.0187949 3
28 1 -1.33668 -2.22831 8.79197 -0.00514136 0.00133913 0.0138355 3
36 1 -1.09471 -3.33412 11.0499 -0.000697148 -0.000570005 0.0173415 3
42 1 -2.52008 -0.248316 8.7428 0.00246305 -0.00435903 0.0186999 3
44 1 -2.45976 -1.54101 9.35408 0.00561845 0.000550503 0.0178034 3
52 1 -0.706025 -3.0926 9.69525 0.00337419 -0.00266029 0.0252173 3
7 1 0.688905 -1.38919 7.82402 -0.00148163 -0.00373364 0.019063 3
16 1 2.88109 -1.71566 10.7166 -0.00611183 -0.000271129 0.0190921 3
25 1 1.38212 -0.144902 7.82044 0.00538942 0.00301207 0.0173707 3
26 1 1.36394 -2.23378 8.78106 -0.00271937 -0.00147432 0.0157643 3
35 1 1.10138 -3.34153 11.0934 0.00391079 0.00185957 0.0155302 3
38 1 2.4927 -0.225925 8.73454 -0.00352453 0.000682919 0.0161707 3
40 1 2.46926 -1.50847 9.33978 -0.00435123 -0.00112183 0.020139 3
50 1 0.702771 -3.11377 9.72823 0.0030645 0.00429437 0.0189582 3
3 1 -3.38946 0.699334 10.9728 0.0106206 -9.09158e-05 0.0174696 3
9 1 0.00240383 3.55527 10.4809 0.00547461 -0.00370627 0.0218731 3
10 1 0.00315187 2.91885 9.1886 0.00170438 -0.00673238 0.0153714 3
18 1 -2.92506 0.844486 9.61463 0.00483844 0.00200212 0.0151085 3
32 1 -1.14009 2.19108 8.69811 0.00115831 0.000149277 0.0111276 3
51 1 -0.71576 1.11529 7.84522 0.0013734 0.000213874 0.0130103 3
54 1 -2.2575 2.67087 10.845 0.000997389 -0.00383388 0.0178303 3
56 1 -2.23214 2.07987 9.54332 0.00142147 0.00565913 0.0206662 3
1 1 3.36982 0.659398 10.9566 -0.0115176 -0.00239843 0.0137517 3
14 1 2.9274 0.840022 9.60932 -0.00541731 0.00125878 0.0196423 3
31 1 1.13681 2.188 8.7008 -0.000364979 0.0011279 0.0156298 3
49 1 0.702814 1.12325 7.84296 -0.00387661 -0.000253936 0.0133746 3
53 1 2.2456 2.6743 10.845 -0.00102027 -0.000230035 0.0183545 3
55 1 2.21662 2.06276 9.53002 -0.00330153 0.00119401 0.0159969 3
4 1 -3.37168 -0.623395 11.5226 0.0147762 0.00306192 0.022997 3
11 1 0.0163487 -3.03355 13.3136 -0.00123826 0.00225128 0.0154482 3
12 1 0.0104046 -3.54959 11.9622 -0.00204618 0.00757756 0.0240992 3
19 1 -2.86967 -0.875927 12.8399 0.00726362 0.000352649 0.0214118 3
34 1 -1.14085 -2.30365 13.7951 -0.000422632 3.57983e-05 0.0241457 3
48 1 -0.720284 -1.16222 14.5802 -0.00140447 -0.00615533 0.029072 3
58 1 -2.21917 -2.10835 12.9078 0.0034255 -0.00403458 0.0225249 3
60 1 -2.20109 -2.61597 11.5917 0.000732359 -0.00262149 0.0256462 3
2 1 3.34375 -0.634026 11.5531 -0.0160695 0.0018174 0.0199189 3
15 1 2.83824 -0.86276 12.8461 -0.00477023 0.00135607 0.0179536 3
33 1 1.14668 -2.30444 13.8032 0.00260063 0.000745346 0.022786 3
46 1 0.716566 -1.16947 14.5951 0.00332098 -0.00202353 0.0295139 3
57 1 2.20597 -2.10199 12.9041 -0.00497127 -0.00548845 0.0248189 3
59 1 2.19308 -2.62419 11.5957 -0.00500495 -0.00504727 0.0183831 3
6 1 -0.706184 1.36676 14.5312 0.00392182 -0.000911974 0.0198943 3
17 1 -2.9095 1.7515 11.7193 0.00768295 -0.00210428 0.0198613 3
23 1 -1.35867 2.25433 13.5956 -0.0030729 0.00389575 0.022159 3
24 1 -1.36796 0.100774 14.5313 -0.00469561 -0.000676955 0.0267804 3
30 1 -1.12839 3.41413 11.3372 -0.00294265 1.56951e-05 0.0257234 3
41 1 -2.46549 1.53744 13.0498 0.00102155 -0.00126587 0.0251156 3
43 1 -2.4455 0.21019 13.6596 0.000259831 0.00134836 0.0197734 3
47 1 -0.672972 3.16254 12.7029 -9.68177e-05 0.00675453 0.0248832 3
5 1 0.738678 1.3903 14.5682 -0.00101371 -0.00439953 0.0188576 3
13 1 2.92218 1.76431 11.7501 -0.00450392 -0.00218718 0.0224372 3
21 1 1.35514 2.28571 13.6152 -2.9092e-05 0.00244438 0.0205102 3
22 1 1.36655 0.1163 14.5606 0.0036251 -0.000871118 0.0298822 3
29 1 1.13217 3.40312 11.346 -0.00371514 0.00157222 0.0235612 3
37 1 2.4751 1.55926 13.0981 -0.00306301 0.00323632 0.024646 3
39 1 2.44795 0.222024 13.6406 -0.00166267 0.00187121 0.0248017 3
45 1 0.73214 3.18243 12.6859 0.00215085 0.00596138 0.023301 3
