ITEM: TIMESTEP
23000
ITEM: NUMBER OF ATOMS
60
ITEM: BOX BOUNDS pp pp pp
-1.4715758017245314e+01 1.5057610017245315e+01
-1.2710055654020760e+01 1.2664508654020761e+01
-5.0001035148846022e+01 1.0000103514884636e+02
ITEM: ATOMS id type x y z vx vy vz c_coord
28 1 -0.429861 -2.11048 8.5851 0.0037726 0.0022424 -0.019896 3
42 1 -1.57228 -0.144528 8.65889 0.00248227 0.000468554 -0.0153333 3
44 1 -1.57548 -1.50215 9.11971 0.00721952 0.00465278 -0.01639 3
8 1 0.27925 -1.23036 7.76923 -0.0015366 -0.00111028 -0.0169269 3
7 1 1.7103 -1.18791 7.80991 0.000582194 -0.00669678 -0.0173734 3
26 1 2.40686 -2.09634 8.71928 0.000850892 0.00287231 -0.022514 3
38 1 3.52245 -0.122358 8.78995 0.00517552 0.00214728 -0.0190366 3
52 1 0.17225 -3.10216 9.39029 0.00338794 0.00141671 -0.01646 3
40 1 3.55214 -1.43321 9.29227 0.00371634 0.000206831 -0.0226736 3
50 1 1.60422 -2.98637 9.49556 0.00524134 -0.00398669 -0.0254117 3
27 1 -0.41486 0.0413397 7.81385 0.00481373 -0.006116 -0.0199463 3
32 1 -0.15855 2.24402 8.78665 0.00368113 0.000785011 -0.0186894 3
18 1 -2.10925 0.892693 9.47856 -0.00339202 -0.00263755 -0.0169041 3
56 1 -1.37127 2.09958 9.53816 -0.00345117 -0.00653373 -0.020124 3
51 1 0.303787 1.28734 7.82183 0.00151004 0.00062464 -0.0166326 3
25 1 2.45613 0.0255136 7.85956 0.00499465 0.000774787 -0.01088 3
49 1 1.76401 1.32163 7.8861 0.00304963 -0.00280357 -0.0185752 3
31 1 2.19037 2.3252 8.85121 0.00390762 0.00163441 -0.0214764 3
10 1 0.955559 2.86353 9.39571 0.00243023 0.000973002 -0.0162259 3
14 1 3.97 0.902577 9.6609 0.00618699 0.00888638 -0.020129 3
55 1 3.25932 2.17918 9.73018 0.00548363 -0.00210801 -0.0190556 3
20 1 -2.08859 -1.745 10.4005 -0.000314523 -0.00393838 -0.0135226 3
36 1 -0.355933 -3.37836 10.6763 0.00193986 0.00662319 -0.0214215 3
4 1 -2.72668 -0.78946 11.2452 0.00142706 -0.00353987 -0.0125084 3
60 1 -1.50138 -2.74922 11.2349 0.00279602 0.00920592 -0.0215932 3
19 1 -2.37251 -1.07625 12.6346 -0.00858601 0.00357577 -0.0144597 3
58 1 -1.65033 -2.30957 12.595 0.00120507 0.000385113 -0.0169617 3
34 1 -0.485885 -2.4923 13.3902 -0.00458659 0.00752302 -0.0157071 3
48 1 -0.0387062 -1.45831 14.2348 0.00397722 0.0036263 -0.0171407 3
24 1 -0.807237 -0.250731 14.2543 0.00333277 -0.00142545 -0.0174802 3
16 1 3.82106 -1.77458 10.6275 0.00335271 0.00367683 -0.0197559 3
35 1 2.00997 -3.31622 10.7699 0.00228442 -0.00137687 -0.0227512 3
12 1 0.809765 -3.50544 11.5435 -0.00150016 0.00651012 -0.0186257 3
2 1 4.25344 -0.761925 11.5174 0.015237 0.00562504 -0.0151413 3
59 1 3.11864 -2.71448 11.4313 -0.00264974 0.00466176 -0.0215305 3
11 1 0.724059 -3.03781 12.871 0.00525783 -0.00154399 -0.0164897 3
15 1 3.83846 -1.05865 12.8532 0.00935033 -0.00223412 -0.0200477 3
57 1 3.11594 -2.31422 12.8157 -0.00457508 0.00291668 -0.0144936 3
33 1 1.86213 -2.4856 13.5434 0.00637696 0.0077041 -0.0222885 3
39 1 3.3567 -0.0359122 13.7351 -0.00253028 -0.00555391 -0.0191179 3
46 1 1.36685 -1.45629 14.4058 -0.00771664 -0.000412111 -0.0190114 3
22 1 2.11396 -0.268653 14.428 0.00119513 -1.59608e-05 -0.0202274 3
3 1 -2.66456 0.609052 10.7813 0.00311338 0.00079471 -0.0129037 3
54 1 -1.51329 2.60418 10.8899 0.00195852 -0.00704883 -0.0180334 3
30 1 -0.406179 3.20983 11.4977 -0.00118914 -0.00336743 -0.022509 3
17 1 -2.29205 1.66595 11.6304 0.00748028 0.00132008 -0.0187794 3
41 1 -1.88836 1.33082 12.9057 -0.00499767 0.0012042 -0.0222127 3
47 1 0.00609198 2.95813 12.8794 0.00184307 -0.00185981 -0.00993713 3
23 1 -0.786449 1.95542 13.5038 0.00319596 -0.00174845 -0.0195597 3
43 1 -1.96782 -0.00788413 13.4684 -0.00394916 -0.00551467 -0.0192465 3
6 1 -0.0660047 0.993894 14.2533 0.00312879 0.0011322 -0.0160105 3
9 1 0.813915 3.33168 10.7485 0.00515886 -0.00691184 -0.0150531 3
1 1 4.21797 0.575261 11.0447 0.00204592 0.00276166 -0.00944435 3
53 1 3.08283 2.58308 11.0708 -0.00492191 -0.00942002 -0.0174921 3
29 1 1.93869 3.15716 11.5715 0.0127495 -0.0049612 -0.0202361 3
13 1 3.74395 1.6286 11.9159 0.00609339 -0.000286598 -0.0149737 3
37 1 3.31786 1.2987 13.2334 0.00707435 -0.00127339 -0.0196476 3
45 1 1.45355 2.87789 12.9109 -0.00202222 0.000212544 -0.0146592 3
21 1 2.15099 1.9258 13.6967 -0.000241669 -0.00470886 -0.0144106 3
5 1 1.36242 0.949772 14.3849 0.00250802 0.000696785 -0.0138215 3
