ITEM: TIMESTEP
38300
ITEM: NUMBER OF ATOMS
60
ITEM: BOX BOUNDS pp pp pp
-1.4715758017245314e+01 1.5057610017245315e+01
-1.2710055654020760e+01 1.2664508654020761e+01
-5.0001035148846022e+01 1.0000103514884636e+02
ITEM: ATOMS id type x y z vx vy vz c_coord
44 1 0.0632554 -1.3373 -4.82167 0.00128663 -0.00160896 -0.0137889 3
20 1 -0.499135 -1.76746 -3.57551 -0.00114122 0.00361998 -0.0233719 3
4 1 -0.990723 -0.781051 -2.71683 0.00210943 0.00641813 -0.0246368 3
60 1 0.162587 -2.79911 -2.78809 0.00254185 -0.00183841 -0.0165617 3
28 1 1.30737 -1.98305 -5.22343 0.00703037 0.0028257 -0.0145349 3
8 1 2.06615 -0.938682 -5.82718 -0.00351932 0.0033845 -0.0115347 3
7 1 3.45151 -0.932416 -5.59469 0.000707818 -9.59945e-06 -0.0154811 3
26 1 4.08577 -2.0314 -4.96081 0.00557922 0.00274673 -0.013497 3
52 1 1.93441 -3.04262 -4.47486 -6.4797e-08 0.00276526 -0.0232694 3
40 1 5.17121 -1.38232 -4.21546 0.0106505 0.00133686 -0.025044 3
50 1 3.326 -3.03664 -4.29193 0.00976629 -0.000330254 -0.0159306 3
36 1 1.33295 -3.5178 -3.27291 -0.000909944 0.000806906 -0.0123573 3
16 1 5.50654 -1.8283 -2.88486 0.00339841 -0.00262923 -0.0250696 3
35 1 3.65343 -3.59407 -2.99622 0.00631159 -0.00239395 -0.015726 3
12 1 2.40548 -3.82245 -2.36386 -0.00549951 -0.00142605 -0.0236353 3
42 1 0.101194 0.0384778 -5.17503 0.00542483 -0.00447704 -0.0217099 3
18 1 -0.327956 1.02379 -4.318 -0.00443193 -0.00454724 -0.0221903 3
3 1 -0.924399 0.60914 -3.11338 0.00337597 -0.00164633 -0.0190923 3
56 1 0.315465 2.3344 -4.11835 0.00535352 0.00298386 -0.0193435 3
27 1 1.3621 0.311583 -5.8293 0.000222068 0.00135886 -0.0210441 3
51 1 2.03507 1.55343 -5.62062 -0.00555992 -0.00400644 -0.0166515 3
25 1 4.12966 0.264123 -5.34728 0.00481241 0.00276838 -0.0174941 3
49 1 3.44109 1.5222 -5.3605 0.0091986 0.00698719 -0.0263976 3
38 1 5.1697 0.0354832 -4.50699 0.00785397 -0.00255425 -0.0148245 3
32 1 1.53164 2.58903 -4.75587 0.00184391 0.00540062 -0.0123203 3
31 1 3.77859 2.51929 -4.34836 0.00294684 -0.00244286 -0.0125677 3
10 1 2.57692 3.19309 -3.95277 -0.000986636 0.00313199 -0.0200845 3
14 1 5.50856 1.04193 -3.53436 0.0085764 0.00268737 -0.020295 3
55 1 4.80248 2.27519 -3.44978 0.0034342 -0.00209611 -0.0186746 3
54 1 0.215044 2.65944 -2.71665 -0.00247859 -0.000337759 -0.0270926 3
9 1 2.53881 3.51992 -2.58245 0.0045623 -0.00566892 -0.0163008 3
19 1 -0.753374 -1.23234 -1.41072 0.00797989 0.000662373 -0.013856 3
58 1 -0.0461845 -2.4888 -1.41711 0.00380466 0.000125819 -0.0196714 3
43 1 -0.353632 -0.218992 -0.500435 0.00192072 -0.00289817 -0.0128867 3
2 1 5.80031 -0.812028 -1.8995 0.00282589 -0.000875481 -0.0160206 3
59 1 4.70234 -2.88014 -2.28383 0.00207939 0.00397609 -0.0203744 3
11 1 2.25329 -3.42761 -0.971465 -0.00195804 0.00589237 -0.0160652 3
57 1 4.49595 -2.48469 -0.941617 -0.00166767 -0.000790641 -0.0212618 3
34 1 1.04548 -2.76571 -0.507984 0.00491355 -0.000543785 -0.0140716 3
15 1 5.13525 -1.24069 -0.694808 -0.0018325 0.00121453 -0.0216759 3
33 1 3.32389 -2.75374 -0.218302 0.00645006 -0.00383185 -0.0224444 3
39 1 4.65684 -0.251637 0.215228 -0.00606232 -0.00101513 -0.0168011 3
24 1 0.658732 -0.465611 0.47475 0.00457004 -0.000216993 -0.0103181 3
48 1 1.34676 -1.755 0.49595 0.000407629 -0.00571577 -0.0103732 3
46 1 2.75656 -1.76683 0.690766 -0.00606349 0.00125902 -0.0154697 3
22 1 3.43751 -0.507526 0.892071 0.00310434 -0.000879211 -0.0148667 3
17 1 -0.587254 1.62522 -2.11117 -0.00277739 0.000887114 -0.0168726 3
41 1 -0.304592 1.17117 -0.777735 0.000463453 0.00186812 -0.0109417 3
30 1 1.25509 3.29783 -1.97413 0.00194532 -0.00256974 -0.0226993 3
1 1 5.78529 0.638551 -2.19185 -0.00221496 -0.000757589 -0.0122648 3
53 1 4.6975 2.63222 -2.07497 0.0032267 0.00538203 -0.0146802 3
29 1 3.52709 3.25729 -1.63727 0.000246976 0.00577329 -0.0215777 3
13 1 5.35014 1.65177 -1.25078 0.00704567 -0.00755422 -0.0164824 3
23 1 0.776446 1.77078 -0.0214431 0.00112166 -0.00609905 -0.0161324 3
47 1 1.46351 2.89348 -0.606852 0.00508799 -0.00519576 -0.0227194 3
37 1 4.72741 1.15957 -0.0590132 -0.00552277 -0.00129947 -0.0222372 3
45 1 2.90343 2.85721 -0.375198 0.00381235 -0.00111371 -0.0236607 3
6 1 1.33878 0.75162 0.805287 0.00131484 -0.00129439 -0.0101249 3
21 1 3.54915 1.82331 0.384555 0.00763675 0.00068901 -0.0114197 3
5 1 2.74497 0.75976 0.971841 0.000580532 0.00240289 -0.0177521 3
