ITEM: TIMESTEP
14000
ITEM: NUMBER OF ATOMS
60
ITEM: BOX BOUNDS pp pp pp
-1.4715758017245314e+01 1.5057610017245315e+01
-1.2710055654020760e+01 1.2664508654020761e+01
-5.0001035148846022e+01 1.0000103514884636e+02
ITEM: ATOMS id type x y z vx vy vz c_coord
8 1 -0.495257 -1.30986 13.6799 -0.0042759 -0.0025569 -0.0116142 3
27 1 -1.26577 -0.0968069 13.6526 -0.00503814 -0.0011913 -0.00421368 3
28 1 -1.27459 -2.21191 14.4696 -0.00211802 0.00549292 6.90728e-05 3
42 1 -2.44976 -0.238919 14.4331 0.00718056 -0.00462374 -0.00919789 3
44 1 -2.47609 -1.54909 14.9921 0.00458122 0.00582221 -0.00137527 3
52 1 -0.560154 -3.05613 15.3859 0.000508463 0.00464043 0.00155883 3
7 1 0.919907 -1.31093 13.6748 -0.00445827 -0.00235957 -0.00566385 3
25 1 1.64396 -0.0854159 13.6388 0.000942401 0.00131462 -0.000622382 3
26 1 1.68752 -2.24142 14.495 -0.00260347 0.00036006 0.00281752 3
38 1 2.82663 -0.23944 14.4743 -0.00152017 -0.00457658 0.0017002 3
40 1 2.78903 -1.51711 15.0348 0.00155773 0.00823625 -0.00128585 3
50 1 0.863069 -3.02093 15.3609 -0.002161 0.00512052 -0.00156936 3
10 1 0.163164 2.74899 15.0827 0.000384752 0.00324602 0.00431915 3
32 1 -0.933625 2.14919 14.4959 9.02547e-05 0.00165993 -0.00437264 3
51 1 -0.503035 1.13279 13.5699 -0.00441781 -0.00541583 -0.00828514 3
18 1 -2.84368 0.779289 15.3028 0.00245906 0.000578181 0.000851006 3
56 1 -2.13726 2.02571 15.2985 0.002504 -0.00644293 0.0014373 3
31 1 1.3457 2.16675 14.5497 -0.00240447 -0.0080028 0.000525281 3
49 1 0.9157 1.15446 13.6378 -2.30088e-05 -0.00119128 7.37801e-05 3
14 1 3.20706 0.761584 15.381 -0.00336308 -0.00329662 0.00223094 3
55 1 2.50162 2.03 15.4293 -0.000749687 0.00183454 0.000805985 3
20 1 -2.91966 -1.78849 16.3333 0.00228455 -0.00075158 -0.00242921 3
36 1 -1.04797 -3.2735 16.7015 0.00173934 0.00259201 -0.00407822 3
4 1 -3.37887 -0.730671 17.1256 0.00323333 -0.00040165 -0.00297532 3
60 1 -2.28286 -2.71505 17.2063 -0.00203341 0.000439829 0.00788399 3
12 1 0.133363 -3.39099 17.5352 0.000105067 0.000387623 0.000275124 3
19 1 -3.06231 -0.943032 18.5193 0.0083174 0.00404195 -0.0006727 3
58 1 -2.2988 -2.17786 18.5292 0.00198211 0.00113882 -0.0012384 3
11 1 0.0629441 -3.00699 18.8266 0.00582484 -0.00168595 -0.00127513 3
34 1 -1.10923 -2.35903 19.3285 -0.00158177 -0.00300716 0.00626519 3
48 1 -0.622444 -1.21479 20.0597 -0.000616898 -0.00198837 0.00604261 3
24 1 -1.42429 -0.0507414 20.147 0.00227343 -0.00725853 0.0084025 3
16 1 3.18962 -1.7832 16.3853 -0.00334541 -0.00103641 -0.00496814 3
35 1 1.2925 -3.19211 16.7331 0.00466089 0.00394773 -0.000285415 3
2 1 3.66542 -0.717668 17.235 -0.00146184 -0.00151832 -0.00254754 3
59 1 2.44263 -2.6246 17.2554 -0.00113826 0.0039667 0.000440608 3
15 1 3.26535 -0.945202 18.608 -0.00755366 0.00261616 0.00243822 3
57 1 2.49293 -2.14253 18.5985 0.00242943 0.00142599 0.000918323 3
33 1 1.21341 -2.30054 19.3097 -0.0037455 0.00764734 0.00167094 3
46 1 0.778922 -1.20088 20.0705 -0.00274391 0.000285903 0.00436929 3
22 1 1.53972 -0.0340183 20.0765 -0.00104758 -0.00324842 0.00190782 3
9 1 0.125176 3.24802 16.4027 0.00203339 -0.00305356 0.00498935 3
3 1 -3.41348 0.568749 16.5893 0.0032778 0.00198183 -0.00322825 3
54 1 -2.14794 2.45326 16.6711 0.00753233 -0.00195337 -0.00266525 3
30 1 -1.03089 3.0856 17.1935 0.00096029 -0.00273498 -0.00272916 3
17 1 -2.99488 1.64352 17.465 0.0029425 -0.00592339 -0.0046925 3
41 1 -2.70421 1.49459 18.9009 0.00154331 0.000467826 -0.00300736 3
47 1 -0.640844 2.95335 18.5198 0.00189144 0.00604712 0.000842342 3
6 1 -0.674597 1.14791 20.1137 0.00403129 0.00182986 0.00828207 3
23 1 -1.47342 2.15573 19.3923 -0.00110852 -0.00212597 0.00337569 3
43 1 -2.67578 0.139852 19.3772 -0.000127296 -0.00115213 0.00100709 3
1 1 3.67641 0.587162 16.7256 -0.00611183 0.00824611 -0.000893045 3
53 1 2.471 2.56075 16.7377 -0.00246984 -0.00371228 -0.000627856 3
29 1 1.30205 3.19432 17.2428 0.00331269 -0.00304183 -0.000974012 3
13 1 3.25468 1.67743 17.566 0.000979929 -0.00182068 -0.000132859 3
37 1 2.80865 1.46322 18.9046 -0.00330205 0.00365813 0.000641274 3
45 1 0.823495 3.01191 18.5419 0.00325639 -0.00478886 0.00572854 3
5 1 0.797219 1.16199 20.0274 0.0011718 -0.00236947 0.00381156 3
21 1 1.57059 2.12734 19.4065 -0.00107698 0.0041277 0.00522827 3
39 1 2.80062 0.145289 19.4334 0.00247492 -0.00807809 0.00827608 3
