ITEM: TIMESTEP
26100
ITEM: NUMBER OF ATOMS
60
ITEM: BOX BOUNDS pp pp pp
-1.4715758017245314e+01 1.5057610017245315e+01
-1.2710055654020760e+01 1.2664508654020761e+01
-5.0001035148846022e+01 1.0000103514884636e+02
ITEM: ATOMS id type x y z vx vy vz c_coord
28 1 -0.11951 -2.06227 5.75976 0.000201038 0.000248232 -0.0215815 3
42 1 -1.28717 -0.0779024 5.81985 -0.00564628 0.00102361 -0.0236272 3
44 1 -1.33838 -1.467 6.24861 0.00183646 0.00469511 -0.0260812 3
20 1 -1.7888 -1.78517 7.54896 -0.00577285 0.0040085 -0.0182428 3
36 1 0.0641335 -3.39077 7.85897 -0.00194575 -0.00585757 -0.0202257 3
4 1 -2.31257 -0.760012 8.39315 0.00459562 0.00110748 -0.0131787 3
60 1 -1.1407 -2.7795 8.35645 0.00448185 -0.00132199 -0.0193588 3
19 1 -1.95447 -1.13054 9.74902 0.00228127 0.00877831 -0.0226627 3
58 1 -1.24838 -2.34838 9.71136 0.00175785 -0.00251193 -0.0146193 3
8 1 0.674286 -1.09723 5.09249 0.00238611 -0.00121422 -0.0131832 3
7 1 2.11456 -1.12635 5.16381 -0.00075774 0.00731025 -0.0155561 3
26 1 2.77465 -2.12188 5.94449 0.00644525 -0.00472886 -0.0112265 3
38 1 3.91089 -0.111862 6.13826 0.00603168 -0.00622457 -0.0209575 3
52 1 0.571383 -3.03337 6.59232 0.00597969 0.00426956 -0.0219493 3
40 1 3.90346 -1.5065 6.53994 0.0157867 -0.00543531 -0.025007 3
50 1 1.99425 -3.04714 6.66875 0.00470436 0.0027291 -0.0181744 3
16 1 4.29644 -1.87009 7.8798 0.00562883 0.00496679 -0.017716 3
35 1 2.33442 -3.39136 8.01287 0.00409249 0.00157839 -0.016744 3
12 1 1.119 -3.5962 8.71032 -2.27961e-05 0.00378055 -0.0181094 3
2 1 4.58225 -0.75565 8.77361 0.00301846 0.000279669 -0.0226565 3
59 1 3.52542 -2.82543 8.63397 0.00413703 0.0013245 -0.0216818 3
27 1 -0.0532775 0.170999 5.11563 -0.00242209 0.0069889 -0.0212393 3
32 1 0.119981 2.391 5.96595 0.00162488 0.000130998 -0.0149322 3
18 1 -1.78897 0.931207 6.68384 -0.0024106 0.0057261 -0.0193136 3
56 1 -1.04221 2.15989 6.756 -0.00573752 0.0022485 -0.019927 3
3 1 -2.32346 0.564368 7.97387 -5.12394e-05 -0.000670715 -0.0194158 3
54 1 -1.12045 2.56224 8.11604 -0.00183143 0.0025709 -0.0154837 3
30 1 -0.0122519 3.2283 8.687 0.0061157 -0.00591851 -0.0153787 3
17 1 -1.95236 1.62092 8.85828 0.00416635 -0.0131353 -0.0148204 3
51 1 0.626261 1.39159 5.10767 0.00539767 -0.00500879 -0.0140622 3
25 1 2.82338 0.109785 5.2451 0.00942035 0.00155242 -0.00903781 3
49 1 2.03848 1.34808 5.21846 0.00334955 -0.00565157 -0.0226968 3
31 1 2.39878 2.3381 6.13705 0.0039236 -0.0107865 -0.0165871 3
10 1 1.21707 3.02357 6.61436 -0.00211214 0.00323627 -0.0168581 3
14 1 4.23904 0.923157 7.02844 0.00519375 0.00307465 -0.0187361 3
55 1 3.53002 2.14164 7.07161 0.00585371 0.00397976 -0.0164324 3
9 1 1.18657 3.42782 7.97613 0.011152 -0.011657 -0.0148535 3
1 1 4.59758 0.634255 8.36061 0.00468676 0.000341821 -0.0219146 3
53 1 3.50679 2.62323 8.4375 0.00922223 0.00128719 -0.0211092 3
29 1 2.25918 3.14978 8.86126 0.000512892 -0.00885097 -0.0142925 3
13 1 4.22639 1.68415 9.27295 0.00169233 0.00261482 -0.0213349 3
34 1 -0.185107 -2.48711 10.5997 0.00332181 0.00557646 -0.0152553 3
24 1 -0.531907 -0.280909 11.5966 -0.00937594 -0.00301682 -0.0079581 3
43 1 -1.60427 -0.0668786 10.6864 0.00110291 -0.00327517 -0.0136385 3
48 1 0.170255 -1.49606 11.5591 0.00411893 0.00536679 -0.0151545 3
11 1 0.961573 -3.16478 10.1024 0.00101205 0.00331285 -0.0198262 3
15 1 3.98615 -1.07701 10.0772 0.00615939 0.00239431 -0.0186383 3
57 1 3.31587 -2.31952 9.95959 0.000866008 -0.000914474 -0.0215414 3
33 1 2.09399 -2.5036 10.6942 0.00326502 0.00774576 -0.0125007 3
46 1 1.61287 -1.52411 11.6266 -0.00667572 0.00344367 -0.0195113 3
22 1 2.31511 -0.256331 11.6503 -7.21598e-05 -0.00191672 -0.0170905 3
39 1 3.57897 -0.0617448 10.9768 -0.00368518 -0.00147996 -0.0167312 3
41 1 -1.63753 1.29877 10.2562 0.000681327 -0.000537974 -0.01546 3
23 1 -0.441969 1.90941 10.8279 0.00171305 -0.00330606 -0.015999 3
47 1 0.337736 2.81842 10.0433 0.000953225 -0.00804898 -0.0120835 3
6 1 0.181139 0.910919 11.6448 0.00249676 -0.00252923 -0.0162169 3
37 1 3.63895 1.27042 10.5421 0.000208892 -0.00029832 -0.0166893 3
45 1 1.74914 2.75706 10.1131 0.000192012 -0.00155946 -0.0263272 3
21 1 2.44174 1.88567 10.9528 0.00420916 0.0063327 -0.0165577 3
5 1 1.59444 0.980911 11.6816 -0.0025583 0.000522869 -0.0181027 3
