ITEM: TIMESTEP
30700
ITEM: NUMBER OF ATOMS
60
ITEM: BOX BOUNDS pp pp pp
-1.4715758017245314e+01 1.5057610017245315e+01
-1.2710055654020760e+01 1.2664508654020761e+01
-5.0001035148846022e+01 1.0000103514884636e+02
ITEM: ATOMS id type x y z vx vy vz c_coord
44 1 -0.816503 -1.42729 1.99423 0.000954173 0.00541741 -0.0132004 3
42 1 -0.726713 -0.03742 1.71218 0.00252896 0.00223366 -0.0185029 3
20 1 -1.31618 -1.77835 3.307 0.004843 -0.00287833 -0.0149854 3
28 1 0.432348 -2.00667 1.54087 0.0104471 0.00163984 -0.0235008 3
8 1 1.21969 -1.05822 0.842363 0.000226143 -0.00290871 -0.0139943 3
7 1 2.67528 -1.10616 0.99001 -0.00228674 0.00592667 -0.0128148 3
26 1 3.29361 -2.11639 1.78548 -0.00434947 -0.00448202 -0.0116893 3
38 1 4.4261 -0.0584703 2.14821 -0.00135369 -0.000566351 -0.00912136 3
52 1 1.05432 -3.01617 2.33436 -0.00280951 -0.00196988 -0.0138016 3
40 1 4.33286 -1.43956 2.51786 -0.000134407 -0.00894152 -0.0133004 3
50 1 2.47617 -2.99966 2.5065 0.00169516 -0.0038295 -0.0105965 3
18 1 -1.33712 0.959951 2.55274 -0.000962464 0.00298389 -0.0286037 3
56 1 -0.59636 2.20485 2.69379 0.00241571 0.0104044 -0.0190584 3
27 1 0.478929 0.168088 0.966464 -0.000844957 -0.00521557 -0.017615 3
51 1 1.14871 1.3805 1.15422 0.00716994 -0.00379855 -0.0185529 3
25 1 3.32669 0.120851 1.20797 -0.00199258 -0.000521888 -0.0109127 3
49 1 2.54891 1.32651 1.28026 -0.00606904 0.00531623 -0.014244 3
32 1 0.644101 2.43039 2.03533 -0.00181217 0.00922504 -0.0185422 3
31 1 2.94955 2.38847 2.15764 -0.00207119 -4.77071e-05 -0.0181651 3
10 1 1.76878 2.98241 2.63483 -0.00385319 0.000604928 -0.0201637 3
14 1 4.75968 0.919931 3.08051 0.00608925 -0.00182789 -0.0162919 3
55 1 4.01559 2.13458 3.06174 0.00427054 -0.00439038 -0.0112488 3
4 1 -1.86638 -0.794359 4.20557 0.00725929 0.00484348 -0.0251154 3
60 1 -0.684914 -2.77392 4.15862 0.00336047 -0.00289655 -0.0221956 3
19 1 -1.56691 -1.16373 5.55739 0.00609952 0.000314784 -0.0247451 3
58 1 -0.847496 -2.4058 5.50846 0.00766722 -0.00441572 -0.0275379 3
43 1 -1.1681 -0.120027 6.4911 0.00688936 -0.00289898 -0.0207901 3
24 1 -0.0391974 -0.334447 7.33461 -0.000594731 -0.00266916 -0.0131627 3
34 1 0.251583 -2.56321 6.37085 0.00213707 0.00221209 -0.01382 3
36 1 0.495781 -3.36377 3.62187 0.00266989 -0.00316534 -0.0208853 3
16 1 4.68314 -1.76056 3.89547 0.00405567 -0.00311944 -0.0208215 3
35 1 2.79303 -3.33302 3.83691 0.00603803 -0.00876318 -0.0256397 3
12 1 1.56193 -3.59201 4.53647 0.00362951 -0.00993818 -0.0198778 3
2 1 5.16007 -0.786326 4.86862 0.00100243 -0.000903031 -0.0220402 3
59 1 3.91259 -2.73594 4.52218 0.00679293 -0.00223333 -0.0164884 3
11 1 1.46079 -3.21336 5.92873 0.000382559 -0.00115949 -0.0150143 3
15 1 4.6008 -1.15366 6.14171 -0.00488162 -0.0032459 -0.0216835 3
57 1 3.8475 -2.34814 5.8815 -9.46284e-05 -0.000308076 -0.0168475 3
33 1 2.58881 -2.57979 6.56396 -0.000365564 0.006196 -0.0194649 3
48 1 0.640951 -1.51089 7.20877 0.00698775 -0.00483527 -0.0160594 3
46 1 2.0657 -1.51781 7.3686 0.00213351 0.00059602 -0.0205456 3
22 1 2.75545 -0.267894 7.61408 -0.00534058 -0.0049915 -0.0149303 3
39 1 4.05052 -0.106486 6.98605 0.00325302 0.00499892 -0.0196902 3
3 1 -1.81176 0.594349 3.83025 0.0030916 -0.00174297 -0.0179633 3
54 1 -0.604098 2.49027 4.10071 0.00720037 0.00016023 -0.017828 3
17 1 -1.44235 1.59672 4.76172 0.00545681 -0.000326069 -0.0174171 3
41 1 -1.19429 1.28073 6.10659 0.00702272 -0.00477895 -0.0202872 3
23 1 -0.0175996 1.83502 6.73581 0.00336963 -0.000993114 -0.0175209 3
30 1 0.467283 3.1551 4.7085 -3.17902e-05 0.00590386 -0.0207598 3
9 1 1.66211 3.43423 3.99054 0.00308845 0.00936045 -0.0204962 3
1 1 5.05164 0.545246 4.40184 -0.00268316 0.00718856 -0.0191152 3
53 1 3.86225 2.52674 4.45695 0.00710667 0.00245442 -0.0173526 3
29 1 2.71488 3.21727 4.92265 0.00239961 0.00418522 -0.0174839 3
13 1 4.54428 1.58737 5.26623 0.00230943 0.00986365 -0.0203854 3
47 1 0.784507 2.81108 6.05847 0.00421158 0.00249088 -0.0172046 3
37 1 4.13132 1.23876 6.56047 0.00397227 -0.00151996 -0.0256942 3
45 1 2.22753 2.8746 6.2329 0.00170824 0.00136074 -0.00879156 3
6 1 0.648564 0.903149 7.55137 -0.00180755 -0.00349042 -0.0154585 3
21 1 2.92916 1.87974 6.99723 0.00205253 -0.00125236 -0.0189025 3
5 1 2.04821 0.914407 7.65071 0.00525016 0.00383456 -0.00732148 3
