ITEM: TIMESTEP
41800
ITEM: NUMBER OF ATOMS
60
ITEM: BOX BOUNDS pp pp pp
-1.4715758017245314e+01 1.5057610017245315e+01
-1.2710055654020760e+01 1.2664508654020761e+01
-5.0001035148846022e+01 1.0000103514884636e+02
ITEM: ATOMS id type x y z vx vy vz c_coord
8 1 2.52686 -0.866011 -8.96107 -0.00255207 -0.00707492 -0.0229538 3
7 1 3.90236 -0.905052 -8.77461 -0.00323198 0.00202979 -0.0202337 3
27 1 1.81677 0.388071 -8.94968 0.00386953 8.13939e-05 -0.0243897 3
20 1 -0.0968476 -1.73636 -6.86118 -0.00267573 -0.00655286 -0.0151339 3
4 1 -0.656727 -0.787244 -5.94765 -0.000561402 0.00230618 -0.0167942 3
19 1 -0.376945 -1.22695 -4.60073 -0.00374796 -0.0048143 -0.0164675 3
43 1 0.0141868 -0.309318 -3.56087 0.000375777 0.00566755 -0.0126666 3
58 1 0.343908 -2.47079 -4.68922 -0.000447727 -0.000865779 -0.0244995 3
60 1 0.456215 -2.76917 -6.07159 0.00271355 0.000446834 -0.0144529 3
44 1 0.516794 -1.32024 -8.00767 0.00550679 -0.00125316 -0.0162187 3
28 1 1.71683 -1.9408 -8.42894 0.00145426 0.000742236 -0.0142299 3
26 1 4.51333 -1.96544 -8.07719 -0.00226036 0.00191793 -0.0197216 3
52 1 2.31165 -3.04079 -7.67509 0.00272182 0.00462474 -0.0198519 3
40 1 5.53553 -1.355 -7.28682 0.00451441 -0.000758229 -0.0139478 3
50 1 3.73932 -2.99064 -7.45131 0.00527319 0.00176634 -0.0184574 3
36 1 1.69108 -3.45721 -6.43932 0.000787439 0.00590671 -0.0199922 3
16 1 5.77965 -1.74283 -5.92191 0.00410659 0.00262903 -0.0180678 3
35 1 3.99074 -3.43939 -6.1279 0.0011905 0.00122857 -0.0142331 3
12 1 2.72798 -3.72825 -5.48262 -0.000425647 0.00494189 -0.0178833 3
2 1 6.13578 -0.81554 -4.91515 -0.00196688 0.00403124 -0.0166947 3
59 1 5.00903 -2.81765 -5.40399 0.00383307 0.00825655 -0.0211475 3
11 1 2.58598 -3.35178 -4.09302 0.00593047 0.000818543 -0.0116639 3
57 1 4.87527 -2.50256 -3.98246 0.00897766 0.00475828 -0.0172539 3
34 1 1.33443 -2.74874 -3.7288 -0.00154491 0.00441813 -0.0153854 3
15 1 5.57107 -1.28113 -3.68644 0.00727846 0.00162282 -0.0241808 3
33 1 3.66017 -2.78772 -3.30407 0.000767755 -0.00122076 -0.0137022 3
39 1 4.94873 -0.267024 -2.86059 0.00792382 -0.00396308 -0.0169177 3
18 1 0.0960778 1.0408 -7.37907 0.0142131 0.00291376 -0.0170749 3
3 1 -0.564624 0.631452 -6.14757 -0.000607128 0.000451823 -0.00658222 3
17 1 -0.257534 1.59332 -5.17445 -0.00577948 -0.00394329 -0.0176474 3
41 1 -0.00176895 1.11883 -3.86517 -0.00293829 0.00532676 -0.012099 3
54 1 0.469316 2.6413 -5.72311 0.00115211 0.00149664 -0.0143338 3
42 1 0.622542 0.0532405 -8.25613 0.00907339 0.00165614 -0.0193868 3
56 1 0.642596 2.32957 -7.13224 0.00690171 -0.00263983 -0.0143183 3
51 1 2.49121 1.58656 -8.57231 0.00640362 0.00762683 -0.0248347 3
25 1 4.53325 0.337033 -8.50713 0.0156937 -0.000911026 -0.022581 3
49 1 3.85876 1.58436 -8.41416 0.000751349 0.0019968 -0.0199035 3
38 1 5.63599 0.0549526 -7.63967 -0.000813731 -0.00090354 -0.0209485 3
32 1 1.94315 2.59654 -7.71551 0.00170363 -0.00405069 -0.0209688 3
31 1 4.25185 2.62675 -7.5002 0.00508902 -0.00255523 -0.0172025 3
10 1 3.00899 3.16182 -7.01868 0.00517162 -0.000148789 -0.0118626 3
14 1 5.97696 0.993448 -6.59703 0.00823924 -0.00300122 -0.0138609 3
55 1 5.27372 2.26735 -6.53619 -0.00233167 0.00319662 -0.0218049 3
9 1 2.79838 3.48842 -5.65983 0.00284542 -0.00111493 -0.0211912 3
30 1 1.53133 3.31053 -5.02978 0.00500787 -0.00195628 -0.0151682 3
1 1 6.18442 0.560542 -5.24767 0.00623081 -0.000884638 -0.0184608 3
53 1 5.10938 2.61628 -5.15694 -0.00245749 0.00186261 -0.0196867 3
29 1 3.83705 3.17185 -4.74008 -0.00263338 -0.00450548 -0.0137234 3
13 1 5.67287 1.53197 -4.37334 6.32167e-06 -0.0036437 -0.0170802 3
47 1 1.81312 2.80599 -3.64726 0.0034928 -0.00234192 -0.0192276 3
23 1 1.07411 1.72423 -3.085 0.00240324 -0.000476985 -0.0227272 3
37 1 5.05883 1.16361 -3.17352 0.00256711 0.00260413 -0.0170955 3
45 1 3.21608 2.79725 -3.48503 0.00107639 -0.00509939 -0.0185205 3
24 1 1.05545 -0.580077 -2.66023 -0.00303445 -0.00265425 -0.0229745 3
48 1 1.65908 -1.81468 -2.7264 0.00174323 -0.00212623 -0.018698 3
46 1 3.05254 -1.85198 -2.42843 -0.00243841 -0.000819781 -0.0103382 3
22 1 3.73775 -0.55907 -2.1745 0.0022844 0.000989969 -0.0169246 3
6 1 1.652 0.610569 -2.36753 -0.00190319 -0.0052753 -0.0237178 3
21 1 3.74206 1.69276 -2.77639 0.00340221 -0.0109258 -0.0183874 3
5 1 3.02673 0.65521 -2.126 -0.00342624 -0.00314475 -0.0197705 3
