ITEM: TIMESTEP
21300
ITEM: NUMBER OF ATOMS
60
ITEM: BOX BOUNDS pp pp pp
-1.4715758017245314e+01 1.5057610017245315e+01
-1.2710055654020760e+01 1.2664508654020761e+01
-5.0001035148846022e+01 1.0000103514884636e+02
ITEM: ATOMS id type x y z vx vy vz c_coord
8 1 0.000621756 -1.21264 9.45823 0.00160363 0.00826854 -0.0161067 3
7 1 1.45008 -1.23728 9.52012 0.00256499 -3.01878e-05 -0.0140049 3
27 1 -0.690661 0.00365395 9.34406 0.00369064 -0.000381108 -0.0176705 3
51 1 0.0359016 1.23779 9.41138 0.00360156 0.00099562 -0.0122105 3
25 1 2.11578 0.0442389 9.62564 -0.00573551 0.00490468 -0.0116136 3
49 1 1.45176 1.26448 9.57445 -0.00434511 -0.00201922 -0.0164054 3
28 1 -0.720077 -2.24113 10.0815 -0.000951244 -0.00288269 -0.0173395 3
42 1 -1.82178 -0.176541 10.1179 -0.000547029 -5.08821e-05 -0.0256312 3
44 1 -1.8502 -1.51058 10.612 -0.00163849 0.00257491 -0.0155244 3
52 1 -0.00685018 -3.24784 10.8886 0.00608862 0.00592925 -0.0291026 3
20 1 -2.29166 -1.81399 11.945 0.000647157 -0.00105522 -0.0137794 3
36 1 -0.495658 -3.47628 12.2341 0.00832269 -0.00271697 -0.0148249 3
4 1 -2.79135 -0.745901 12.7214 0.00854753 -0.00165972 -0.0221135 3
60 1 -1.63814 -2.78048 12.7274 0.00579119 -0.000912171 -0.0201852 3
19 1 -2.47828 -1.05613 14.0912 0.0106132 -0.00164031 -0.024175 3
58 1 -1.74651 -2.31875 14.1032 0.00834934 -0.000557814 -0.0124328 3
34 1 -0.592827 -2.42462 14.9174 0.00443652 -0.00303894 -0.0203026 3
26 1 2.18507 -2.21276 10.2459 0.00580894 -0.00175624 -0.0137571 3
38 1 3.24887 -0.167939 10.4683 0.00277076 -0.00899378 -0.0131692 3
40 1 3.29066 -1.5352 10.8585 -0.000327209 -0.00040529 -0.0182363 3
50 1 1.45652 -3.20414 10.9322 0.00401721 -0.00578048 -0.0187813 3
16 1 3.73503 -1.83559 12.175 5.22678e-05 -0.000983062 -0.0193633 3
35 1 1.85682 -3.38044 12.28 0.00115825 -0.00709996 -0.0170134 3
12 1 0.656828 -3.5521 13.0726 0.000622537 -0.00546451 -0.0194833 3
2 1 4.13306 -0.734341 13.0338 -0.000806673 -0.000465294 -0.0149823 3
59 1 2.9494 -2.78272 12.9357 -0.00421568 -0.000390555 -0.017524 3
11 1 0.557666 -3.06184 14.3788 0.0046729 -0.00257514 -0.0181404 3
15 1 3.59415 -1.03253 14.3396 0.00152877 0.00203748 -0.019795 3
57 1 2.87767 -2.30198 14.2685 -0.00733619 0.00268498 -0.0114519 3
33 1 1.69452 -2.44652 14.9789 0.00374975 -0.00758744 -0.020612 3
32 1 -0.443026 2.36095 10.1997 -0.00412513 0.00498497 -0.020645 3
18 1 -2.32388 0.870746 10.9199 0.00294241 -0.00143926 -0.0215611 3
56 1 -1.61111 2.13655 10.9733 9.92877e-05 0.00576372 -0.0157719 3
3 1 -2.82176 0.6066 12.2449 0.00346432 -8.07032e-05 -0.0207479 3
54 1 -1.6177 2.59591 12.3328 0.000921658 -0.0022507 -0.024461 3
30 1 -0.534674 3.2964 12.9756 0.00608143 -0.00167005 -0.0195324 3
17 1 -2.28768 1.63965 13.061 0.0131085 -0.0026826 -0.0224707 3
41 1 -1.94581 1.35636 14.4114 0.00839297 -0.00169022 -0.020612 3
47 1 -0.160046 3.02087 14.3496 -0.00210075 0.000674493 -0.0193177 3
23 1 -0.86685 2.02147 15.0755 0.0033634 0.00328346 -0.00976643 3
43 1 -1.99366 0.00960387 14.9427 0.00546079 0.0025303 -0.0177167 3
10 1 0.656776 2.98561 10.9017 0.00258466 0.00634715 -0.0283421 3
31 1 1.8252 2.31195 10.4321 -0.00448622 0.00597455 -0.0193731 3
14 1 3.75305 0.912632 11.2759 -0.00165787 -0.00253449 -0.0164276 3
55 1 3.01554 2.16669 11.2362 0.00466177 0.00393168 -0.0157589 3
9 1 0.685271 3.39102 12.2317 -0.000836332 0.00869593 -0.0171191 3
1 1 4.12749 0.616203 12.6293 0.00780994 -0.000105214 -0.0152359 3
53 1 2.97662 2.59523 12.5937 0.0057403 0.0030834 -0.0142768 3
29 1 1.825 3.24908 13.0651 -4.71371e-05 -0.0015054 -0.0159894 3
13 1 3.63441 1.65871 13.4132 -0.00478442 -0.00567812 -0.0210828 3
37 1 3.15029 1.35201 14.7583 -0.00373976 -0.000616838 -0.0209976 3
45 1 1.32681 3.0575 14.4123 0.00969329 -0.000814164 -0.0175597 3
39 1 3.1426 0.00206477 15.2526 -0.000784053 0.00591448 -0.0230678 3
21 1 2.00234 2.08701 15.2325 0.00702001 0.00408519 -0.0154336 3
48 1 -0.170797 -1.46852 15.8846 -0.00547297 0.00147379 -0.0211279 3
24 1 -0.869423 -0.168824 15.8579 0.00259469 0.00291696 -0.0182994 3
46 1 1.22042 -1.49672 15.901 0.00519883 -0.00841169 -0.0188984 3
22 1 1.93847 -0.233869 15.9939 -0.00265471 -0.00129409 -0.0193611 3
6 1 -0.184616 1.04648 15.8888 0.00499348 -0.00134878 -0.0161399 3
5 1 1.25363 1.0168 15.9281 -0.00332033 0.00183436 -0.0183641 3
