ITEM: TIMESTEP
11100
ITEM: NUMBER OF ATOMS
60
ITEM: BOX BOUNDS pp pp pp
-1.4715758017245314e+01 1.5057610017245315e+01
-1.2710055654020760e+01 1.2664508654020761e+01
-5.0001035148846022e+01 1.0000103514884636e+02
ITEM: ATOMS id type x y z vx vy vz c_coord
8 1 -0.590218 -1.37115 13.4672 -0.000750826 -0.00158229 -0.00566307 3
27 1 -1.32642 -0.122662 13.547 -0.00681521 0.00673492 -0.00451305 3
28 1 -1.33178 -2.19419 14.4033 -0.00174016 -0.00307647 -0.00182399 3
42 1 -2.43317 -0.270743 14.411 0.00964965 -0.00407002 -0.00642162 3
44 1 -2.43484 -1.53527 14.9981 -0.00204916 0.00340549 0.00106536 3
52 1 -0.611997 -3.07328 15.2655 0.00398364 -3.96151e-05 0.00238391 3
7 1 0.844029 -1.31247 13.4943 0.00114088 0.00434193 -0.00593582 3
25 1 1.58448 -0.0982279 13.5733 0.00387297 0.000541108 -0.000590213 3
26 1 1.51829 -2.17071 14.439 0.00372911 -0.00412016 0.00421659 3
38 1 2.72007 -0.227518 14.4057 -0.00880202 0.00339138 0.00366445 3
40 1 2.64313 -1.51766 15.0144 -0.00793221 0.0056751 0.00568215 3
50 1 0.806684 -3.03109 15.3034 -0.00419752 0.00292403 0.00238582 3
10 1 0.13522 2.80805 14.94 0.000907406 0.00357175 -0.000716144 3
32 1 -0.97794 2.1117 14.4138 0.00247363 0.00773375 -0.00333557 3
51 1 -0.579963 1.11528 13.493 0.00252622 -0.00515165 -0.00835347 3
18 1 -2.89456 0.76784 15.2637 0.00387821 -0.00417514 -0.00247246 3
56 1 -2.13451 1.98158 15.236 -0.00294169 -0.0029869 -0.00183984 3
31 1 1.26956 2.16833 14.4016 -0.0014991 0.00254664 0.00321539 3
49 1 0.879535 1.11765 13.5105 0.00303162 0.00122761 -0.0047403 3
14 1 3.16688 0.852277 15.2741 -0.0127629 -0.00412248 0.00656416 3
55 1 2.4497 2.09677 15.2158 -0.00497997 -0.00476568 0.0065921 3
20 1 -3.00137 -1.77376 16.2479 0.0132286 -0.00413247 0.00339368 3
36 1 -1.08643 -3.31333 16.6212 -0.00321233 -0.00301802 0.00178449 3
4 1 -3.51902 -0.72689 17.0769 0.00469417 0.00244189 -0.00080009 3
60 1 -2.28624 -2.6819 17.1177 -0.00220114 0.00351824 0.00667652 3
12 1 0.0801583 -3.47347 17.3981 0.00172796 -0.000237616 0.00653047 3
19 1 -3.05402 -0.922402 18.4383 0.00478993 -0.00207017 0.00546617 3
58 1 -2.32807 -2.15643 18.4153 0.0056104 -0.00284236 0.00305866 3
11 1 0.0242497 -2.92147 18.7061 -0.00162773 -0.00719772 0.00255103 3
34 1 -1.16617 -2.32846 19.2397 0.00353802 -0.00127506 0.00314256 3
48 1 -0.700536 -1.20769 19.999 -0.000342566 0.00011984 0.00770012 3
16 1 3.15736 -1.75328 16.3214 -0.00326615 0.00772164 0.00263362 3
35 1 1.26387 -3.3214 16.6577 0.002089 -0.000701913 0.00374277 3
2 1 3.6529 -0.704126 17.1702 -0.000730342 0.00370197 0.0024987 3
59 1 2.4341 -2.65426 17.1686 -0.00423203 -0.00133202 0.0104879 3
15 1 3.17395 -0.95549 18.5325 -0.000857007 0.00518379 0.00673767 3
57 1 2.45302 -2.16012 18.5202 -0.000409739 -0.00118241 0.00279158 3
33 1 1.19809 -2.25983 19.1908 -0.00318285 -0.00537809 0.00569276 3
46 1 0.757517 -1.14999 19.9659 0.00640584 0.00427708 0.00577151 3
9 1 0.0903095 3.32211 16.1971 0.00236616 -0.00574695 0.00373296 3
3 1 -3.51229 0.617436 16.5481 0.00991323 -0.00195043 -0.00098341 3
54 1 -2.2356 2.53057 16.5417 0.00675006 1.18226e-05 0.00142635 3
30 1 -1.08236 3.2519 17.0318 0.00518181 -0.00151582 0.00946034 3
17 1 -3.05616 1.69414 17.3761 0.0081501 0.00455636 0.0028964 3
41 1 -2.60152 1.47276 18.7315 -0.00172551 -0.000850602 0.0122275 3
47 1 -0.667622 3.07095 18.3958 0.00167988 -0.000286004 0.00875418 3
6 1 -0.661744 1.24557 19.9911 0.0051775 0.0020301 0.00335791 3
23 1 -1.4114 2.19157 19.2044 0.000920118 0.00522759 0.00137457 3
24 1 -1.39719 0.0322653 20.0401 0.00342901 -0.00227931 0.00562212 3
43 1 -2.59459 0.164228 19.2344 -0.00426847 -0.00265067 0.00595719 3
1 1 3.66094 0.623799 16.6319 -0.0105442 -0.00421444 0.0067338 3
53 1 2.41082 2.52485 16.5688 -0.0125063 -0.000638888 0.0020802 3
29 1 1.22156 3.20571 17.0228 0.00547708 -0.00275342 0.00548105 3
13 1 3.16955 1.72597 17.4676 0.000967611 -3.2339e-05 0.00345985 3
37 1 2.70878 1.55178 18.7956 -0.000991745 -0.0002552 0.00544684 3
45 1 0.77256 3.01702 18.3584 0.00205374 -0.0033102 0.00738435 3
5 1 0.781224 1.26415 19.956 0.00506722 -0.000943305 0.0018667 3
21 1 1.49879 2.16195 19.1712 0.00171272 0.0029385 0.00195035 3
22 1 1.49268 0.0819511 19.958 0.00344594 0.00311474 -0.000664892 3
39 1 2.75604 0.204202 19.2918 -0.00201549 -0.00371222 0.0026532 3
