ITEM: TIMESTEP
25900
ITEM: NUMBER OF ATOMS
60
ITEM: BOX BOUNDS pp pp pp
-1.4715758017245314e+01 1.5057610017245315e+01
-1.2710055654020760e+01 1.2664508654020761e+01
-5.0001035148846022e+01 1.0000103514884636e+02
ITEM: ATOMS id type x y z vx vy vz c_coord
28 1 -0.121306 -2.09095 5.99071 -0.00120624 0.00223801 -0.0196265 3
42 1 -1.24364 -0.135831 6.05187 -0.00205116 0.00607791 -0.0228611 3
44 1 -1.31682 -1.48039 6.45979 -0.00431204 -0.000533251 -0.0182151 3
20 1 -1.78744 -1.79348 7.74167 0.00470197 -0.00032213 -0.0190794 3
36 1 0.038474 -3.34549 8.06322 0.00229181 -0.000797197 -0.0207464 3
4 1 -2.33691 -0.803041 8.59036 0.00177651 -0.00381927 -0.0225392 3
60 1 -1.1567 -2.80022 8.52913 0.00162109 0.00221849 -0.018932 3
8 1 0.683458 -1.11099 5.22537 -0.00126477 0.00972522 -0.0150191 3
7 1 2.0791 -1.14936 5.28728 0.00686049 -0.00315003 -0.00769518 3
26 1 2.70454 -2.10174 6.08023 0.00506668 0.00273483 -0.0205563 3
38 1 3.80018 -0.0856234 6.30423 0.013733 0.000950999 -0.0151114 3
52 1 0.51945 -3.06379 6.77352 -0.00193515 0.0043801 -0.017883 3
40 1 3.77136 -1.42698 6.79076 0.0110614 -0.00691886 -0.0270455 3
50 1 1.95523 -3.06301 6.82661 0.00459919 0.00074751 -0.0183582 3
16 1 4.23481 -1.84794 8.09905 0.0108773 -0.00703494 -0.0213364 3
35 1 2.33211 -3.41337 8.18865 0.00345554 0.00248348 -0.0140765 3
12 1 1.11362 -3.63368 8.94783 -0.000333845 0.00377067 -0.0193872 3
2 1 4.52395 -0.791734 9.00323 0.00564884 0.00682835 -0.0204724 3
59 1 3.45679 -2.82564 8.84406 0.00549322 -0.00364474 -0.0180716 3
27 1 -0.0356341 0.119058 5.30043 0.00176156 -0.000454766 -0.0162478 3
32 1 0.117041 2.40907 6.12584 -0.00223096 -0.00412477 -0.0182091 3
18 1 -1.77371 0.896813 6.88752 -0.00147885 0.00308516 -0.0191796 3
56 1 -1.02486 2.12008 6.93921 0.00117843 0.00334777 -0.0175487 3
3 1 -2.31173 0.616374 8.16973 -0.00149089 -0.00168447 -0.0236555 3
54 1 -1.12316 2.55526 8.30761 0.00155983 -0.00246468 -0.0211715 3
30 1 -0.0871656 3.26636 8.89528 0.00550786 -0.00301498 -0.0221116 3
17 1 -1.96828 1.70284 9.04736 0.00139372 -0.0011978 -0.0179816 3
51 1 0.590733 1.39928 5.25904 -0.00229382 0.00404487 -0.0163316 3
25 1 2.72635 0.111957 5.37752 0.00738341 -0.00111537 -0.0170556 3
49 1 2.02799 1.35191 5.42805 0.00159008 -0.00531331 -0.0240474 3
31 1 2.44601 2.42608 6.34873 -0.00349667 4.75998e-05 -0.0145961 3
10 1 1.22094 3.01735 6.78306 0.00276364 -0.0028709 -0.0193248 3
14 1 4.19121 0.925573 7.23411 0.00496947 -0.00197027 -0.0214507 3
55 1 3.4431 2.12945 7.24222 0.00501552 0.000220007 -0.0195143 3
9 1 1.11162 3.53133 8.13064 0.00096602 -0.00560544 -0.0190682 3
1 1 4.57176 0.579331 8.59051 0.000411221 0.00764962 -0.0209462 3
53 1 3.44415 2.56335 8.59494 0.0093766 0.00381745 -0.0149763 3
29 1 2.22631 3.24963 9.03315 0.00750308 -0.00891183 -0.0177295 3
19 1 -2.01504 -1.10972 9.93656 0.00752703 -0.00650038 -0.0151234 3
58 1 -1.27179 -2.33564 9.88912 0.00510976 -0.00100069 -0.017739 3
34 1 -0.216209 -2.55924 10.7666 -0.00183262 0.00872535 -0.0195473 3
24 1 -0.482584 -0.265584 11.6579 -0.000943416 0.00243824 -0.00410198 3
43 1 -1.61671 -0.0693188 10.8028 -0.00101807 -0.0029603 -0.0108505 3
48 1 0.203871 -1.55088 11.7081 -0.00681181 0.00218574 -0.0133124 3
11 1 0.969122 -3.22255 10.2636 -0.000319154 0.00450089 -0.0193788 3
15 1 3.97133 -1.09175 10.2285 -0.00106787 0.00327991 -0.0160789 3
57 1 3.30374 -2.32405 10.1663 -0.00012254 0.00150979 -0.0189385 3
33 1 2.1013 -2.55165 10.8661 -0.0020103 0.00277146 -0.0223451 3
46 1 1.62492 -1.54358 11.7871 0.00319299 0.00089529 -0.0130638 3
22 1 2.34185 -0.293316 11.842 -0.00269833 0.00465443 -0.0209149 3
39 1 3.5901 -0.0751048 11.1366 0.00171574 0.00193987 -0.0161054 3
41 1 -1.61642 1.3233 10.3607 -0.00305611 0.00255994 -0.0109897 3
23 1 -0.482826 1.94114 10.9554 0.00176177 -0.00650093 -0.00953909 3
47 1 0.301939 2.87615 10.1927 0.00332968 -0.00142192 -0.0208529 3
6 1 0.191762 0.995484 11.7982 -0.00514433 -0.01078 -0.0144567 3
13 1 4.16146 1.65816 9.45665 0.00873086 0.00225529 -0.0142601 3
37 1 3.63437 1.30724 10.7043 0.00332724 -0.00396562 -0.0198902 3
45 1 1.7411 2.829 10.3235 0.0053937 -0.013588 -0.012616 3
21 1 2.39515 1.83954 11.1244 0.00269599 0.0013108 -0.0167783 3
5 1 1.60654 0.960578 11.878 0.000665976 0.00696267 -0.0212087 3
