ITEM: TIMESTEP
39600
ITEM: NUMBER OF ATOMS
60
ITEM: BOX BOUNDS pp pp pp
-1.4715758017245314e+01 1.5057610017245315e+01
-1.2710055654020760e+01 1.2664508654020761e+01
-5.0001035148846022e+01 1.0000103514884636e+02
ITEM: ATOMS id type x y z vx vy vz c_coord
20 1 -0.364972 -1.69489 -4.78661 0.00212035 -3.05081e-05 -0.0119612 3
4 1 -1.01719 -0.819903 -3.87571 -0.00411284 0.000453151 -0.00953617 3
60 1 0.244288 -2.71447 -3.99055 -0.0013458 0.00458418 -0.0204051 3
19 1 -0.780248 -1.27269 -2.49991 -0.00385032 -0.00305031 -0.0168675 3
58 1 0.0366939 -2.46326 -2.59142 -0.000708199 0.00609035 -0.021346 3
44 1 0.25748 -1.30975 -6.01632 0.00620562 -0.000600042 -0.0207456 3
28 1 1.45577 -1.86818 -6.53177 0.00149895 -0.000807024 -0.0182157 3
8 1 2.31249 -0.872387 -7.08995 5.26588e-08 -0.00328833 -0.0237753 3
7 1 3.74819 -0.946782 -7.01553 0.00557549 -0.00245121 -0.0204571 3
26 1 4.32701 -1.91427 -6.10318 0.000354063 0.000903755 -0.00940492 3
52 1 2.07874 -2.86803 -5.71031 0.00604514 6.58286e-05 -0.012091 3
40 1 5.38342 -1.32518 -5.3613 0.00188194 -0.00158458 -0.0173943 3
50 1 3.469 -2.7995 -5.46055 0.00836933 0.00276074 -0.018473 3
36 1 1.47859 -3.27423 -4.46234 0.00704849 0.00242662 -0.0175095 3
16 1 5.62618 -1.72605 -3.99238 0.0020682 0.00137968 -0.0238256 3
35 1 3.75392 -3.20363 -4.14689 -0.000988805 0.00268669 -0.0193105 3
12 1 2.52187 -3.52938 -3.49 0.00576969 -0.000319248 -0.0158592 3
2 1 6.04926 -0.791529 -3.00046 -0.0021573 0.00208121 -0.015461 3
59 1 4.82244 -2.69844 -3.37645 -0.0019081 0.00320968 -0.0201229 3
18 1 -0.302272 1.03719 -5.40556 0.0055397 0.00631532 -0.0143266 3
3 1 -0.943718 0.614075 -4.1517 0.00678789 -0.00177724 -0.0160916 3
54 1 0.279176 2.5178 -3.76392 0.0013034 0.00235379 -0.0164884 3
17 1 -0.585662 1.61931 -3.16302 -3.76353e-05 -0.0011884 -0.0238045 3
42 1 0.352268 0.0756656 -6.27086 0.00603832 0.000935069 -0.0211919 3
56 1 0.446318 2.20446 -5.17007 0.0124347 -0.00359592 -0.0158627 3
27 1 1.54336 0.336551 -6.97757 -0.00287438 0.000780452 -0.017881 3
51 1 2.32558 1.47635 -6.67975 0.00580636 0.0023483 -0.0169844 3
25 1 4.45068 0.272055 -6.72537 -0.0010402 -0.00209093 -0.02169 3
49 1 3.74398 1.51686 -6.68026 7.24775e-05 0.0047828 -0.0187105 3
38 1 5.45306 0.0414333 -5.71423 -0.00642683 0.00161516 -0.0155841 3
32 1 1.73037 2.46651 -5.8392 0.000188709 -0.00302812 -0.016088 3
31 1 4.01407 2.47151 -5.6517 -0.000210761 -0.00247785 -0.0133132 3
10 1 2.82073 3.07394 -5.14549 0.00751843 -0.00299126 -0.0174594 3
14 1 5.85024 0.999959 -4.77231 -3.46204e-05 -0.00594716 -0.00788478 3
55 1 5.09725 2.21991 -4.68879 -0.00545792 -0.00287186 -0.0130291 3
9 1 2.55525 3.32152 -3.70273 0.00774858 -0.00346831 -0.023395 3
30 1 1.30932 3.13942 -3.0284 -0.00604907 -0.000531031 -0.00713748 3
1 1 6.02187 0.568325 -3.41418 0.00674943 0.000834367 -0.020982 3
53 1 4.81808 2.48431 -3.28957 0.00338051 0.00132256 -0.0152164 3
29 1 3.58862 2.99847 -2.8561 0.00677024 -0.0100686 -0.0179565 3
43 1 -0.450551 -0.282759 -1.48821 0.00340805 7.74801e-05 -0.0202352 3
11 1 2.3465 -3.20688 -2.11364 -0.000330828 0.00232257 -0.0210933 3
57 1 4.66503 -2.40957 -1.96814 0.00746499 0.00374008 -0.014333 3
34 1 1.08708 -2.66369 -1.6586 -0.00371559 0.00733191 -0.0198638 3
15 1 5.4355 -1.22119 -1.73217 0.006283 0.00473841 -0.0150085 3
33 1 3.40681 -2.68312 -1.32142 0.00285651 0.00524727 -0.0128638 3
39 1 4.85113 -0.26786 -0.841584 0.000375506 -0.00233703 -0.0170561 3
24 1 0.664608 -0.500086 -0.574686 0.000663559 -0.000783904 -0.0239515 3
48 1 1.42867 -1.70995 -0.61114 0.00591792 -0.003641 -0.0233601 3
46 1 2.84908 -1.72072 -0.468191 0.00887015 -0.00115812 -0.0202834 3
22 1 3.56122 -0.545536 -0.227629 0.000467933 0.000338239 -0.0193566 3
41 1 -0.366948 1.13002 -1.81748 -0.00179031 -0.00658184 -0.0183611 3
13 1 5.49299 1.49578 -2.50522 -0.000685095 -0.0010116 -0.02232 3
23 1 0.762809 1.68889 -1.10844 -0.00248739 0.00725487 -0.0165672 3
47 1 1.58051 2.73191 -1.65385 0.00231585 -0.00239107 -0.0153273 3
37 1 4.85878 1.07517 -1.2942 0.00713048 0.00187937 -0.0198524 3
45 1 3.01432 2.61552 -1.61 0.00378765 1.10589e-05 -0.0170175 3
6 1 1.39568 0.696731 -0.335613 0.00200492 -0.0053072 -0.0270978 3
21 1 3.64542 1.60456 -0.866411 -0.00351197 -0.00452413 -0.018878 3
5 1 2.83575 0.658863 -0.250595 0.00580067 -0.00227648 -0.0195779 3
