ITEM: TIMESTEP
32300
ITEM: NUMBER OF ATOMS
60
ITEM: BOX BOUNDS pp pp pp
-1.4715758017245314e+01 1.5057610017245315e+01
-1.2710055654020760e+01 1.2664508654020761e+01
-5.0001035148846022e+01 1.0000103514884636e+02
ITEM: ATOMS id type x y z vx vy vz c_coord
44 1 -0.576264 -1.40113 0.631208 0.00801712 0.00418943 -0.0200215 3
20 1 -1.14258 -1.80377 1.86085 -0.000811834 0.00939741 -0.0178527 3
4 1 -1.64788 -0.790905 2.77204 -0.00080992 -0.00216099 -0.0166428 3
60 1 -0.548329 -2.79015 2.7179 -0.000561087 -0.00549298 -0.0187492 3
42 1 -0.570745 -0.041436 0.237605 0.00350157 -0.000501535 -0.0123515 3
28 1 0.579517 -2.07435 0.139305 0.00414649 0.000669018 -0.0174448 3
8 1 1.41279 -1.05981 -0.53527 0.00318372 0.00110107 -0.0254338 3
7 1 2.84368 -1.02161 -0.455184 0.000952786 -0.00124498 -0.0235529 3
26 1 3.46324 -1.96424 0.416292 0.00716236 0.00706 -0.0167013 3
38 1 4.58026 -0.0126851 0.705816 0.00795293 0.00107201 -0.0156268 3
52 1 1.23375 -2.99491 0.953974 0.00868052 0.00381042 -0.0224213 3
40 1 4.49979 -1.39396 1.11922 0.00306904 0.00179057 -0.0250771 3
50 1 2.6513 -2.96119 1.03177 0.0050735 0.00880022 -0.0125203 3
36 1 0.700987 -3.34971 2.23702 0.00448839 0.00212725 -0.0172734 3
16 1 4.81416 -1.77713 2.47023 -0.00243123 -0.00274129 -0.0209438 3
35 1 2.9508 -3.33804 2.39315 0.00162725 0.0132681 -0.0225571 3
12 1 1.7706 -3.63859 3.17017 -0.0017197 0.00590836 -0.0138003 3
2 1 5.15786 -0.805858 3.39963 0.000561783 -0.0025779 -0.0116608 3
59 1 3.99527 -2.75323 3.12162 -0.00129602 -0.000113063 -0.0109416 3
18 1 -1.05583 0.956249 1.11151 -0.00230058 -0.00300766 -0.0198374 3
56 1 -0.376038 2.20306 1.27284 -0.000573916 -0.00221804 -0.00926279 3
3 1 -1.64037 0.59207 2.38938 -0.00257642 -0.0024321 -0.0123254 3
54 1 -0.486711 2.57579 2.67015 -0.000926431 -0.00184885 -0.0161631 3
17 1 -1.28325 1.62447 3.30741 -0.00202563 -0.00708159 -0.0113383 3
27 1 0.701704 0.170649 -0.408571 0.00377458 0.00118961 -0.0154384 3
51 1 1.42046 1.42573 -0.266179 0.00292317 -0.00184909 -0.0189957 3
25 1 3.53036 0.215656 -0.256998 0.00510889 -0.00128206 -0.0254531 3
49 1 2.84597 1.45666 -0.243323 0.0125442 -0.00322734 -0.0216233 3
32 1 0.881127 2.44275 0.558465 0.00477731 -0.0072325 -0.0225997 3
31 1 3.15349 2.50289 0.739132 0.00317524 -0.00795926 -0.0191715 3
10 1 1.94652 3.10473 1.22593 0.00794192 0.00732321 -0.01603 3
14 1 4.9562 1.00464 1.66919 -0.00182061 0.00391292 -0.0164278 3
55 1 4.20323 2.25112 1.68294 -0.000131976 -0.00636435 -0.0188683 3
9 1 1.8187 3.53306 2.59565 -0.00153886 -0.00296336 -0.0165949 3
30 1 0.609518 3.22254 3.32029 0.00543133 -0.00370386 -0.0140441 3
1 1 5.2681 0.583027 3.00927 0.00811455 -0.00416833 -0.0172274 3
53 1 4.02134 2.52355 3.04657 0.00486281 -0.00139103 -0.0219725 3
29 1 2.91114 3.24231 3.50441 0.0046345 -0.000809565 -0.0187881 3
19 1 -1.33912 -1.1752 4.11173 0.000340892 0.00411181 -0.0156888 3
58 1 -0.662388 -2.40387 4.12807 0.00130661 0.00071398 -0.00793043 3
43 1 -1.01059 -0.136712 4.9983 -0.00623149 0.00586476 -0.0105931 3
24 1 0.124308 -0.351778 5.83024 -0.00537825 -0.00436523 -0.0237449 3
34 1 0.473686 -2.64302 5.00315 -0.00345509 -0.00391125 -0.0264304 3
11 1 1.6415 -3.36611 4.56954 -0.000108763 0.00410669 -0.0186524 3
15 1 4.74474 -1.22857 4.66334 0.00635104 0.00119902 -0.0156282 3
57 1 3.97202 -2.47654 4.53774 0.00155146 0.00195695 -0.0133164 3
33 1 2.75279 -2.75693 5.23204 0.00684781 0.00324236 -0.0260835 3
48 1 0.813104 -1.62375 5.89413 0.00197904 0.00255449 -0.0202403 3
46 1 2.22623 -1.6703 6.02271 -0.000214816 0.000379001 -0.0198249 3
22 1 2.91482 -0.469218 6.14716 0.00378508 0.00150659 -0.0140794 3
39 1 4.16019 -0.216724 5.49429 0.00805066 0.00319285 -0.0143639 3
41 1 -1.00288 1.31507 4.658 -0.00545591 -0.00024663 -0.0166492 3
23 1 0.113821 1.92088 5.28786 0.000957437 -0.00190137 -0.0162408 3
13 1 4.64685 1.53948 3.87624 0.00211254 -0.00456012 -0.0217374 3
47 1 0.926678 2.86279 4.67941 -0.00205815 -0.00346838 -0.0171241 3
37 1 4.10706 1.18839 5.11705 0.00399875 -0.00751288 -0.0181692 3
45 1 2.33783 2.83808 4.76419 -0.00180499 -0.00204218 -0.0242199 3
6 1 0.783512 0.891952 6.04231 0.0063304 -0.00463315 -0.0175337 3
21 1 2.92845 1.82186 5.57673 0.00540253 -0.000530413 -0.0136383 3
5 1 2.20118 0.809073 6.18986 -0.00158922 0.00378589 -0.0206197 3
