ITEM: TIMESTEP
28000
ITEM: NUMBER OF ATOMS
60
ITEM: BOX BOUNDS pp pp pp
-1.4715758017245314e+01 1.5057610017245315e+01
-1.2710055654020760e+01 1.2664508654020761e+01
-5.0001035148846022e+01 1.0000103514884636e+02
ITEM: ATOMS id type x y z vx vy vz c_coord
28 1 0.0897845 -2.1282 3.99147 0.0018291 0.0052095 -0.0201221 3
8 1 0.897216 -1.15897 3.3278 0.00358415 0.00384528 -0.0114796 3
7 1 2.24845 -1.10922 3.43416 -0.00452284 0.000987509 -0.0191756 3
27 1 0.219302 0.104015 3.35835 -0.00048923 -0.00180495 -0.0180026 3
51 1 0.79984 1.37705 3.43464 -0.000961658 0.00416891 -0.0154121 3
25 1 2.97576 0.166522 3.54529 -0.00171279 0.00352783 -0.00926987 3
49 1 2.24803 1.39765 3.55225 0.00186136 -0.0048125 -0.015722 3
42 1 -0.962818 -0.0981886 4.15228 -1.4787e-05 0.00200681 -0.020708 3
44 1 -1.10395 -1.49187 4.53472 0.00717649 0.000790883 -0.0232771 3
20 1 -1.64767 -1.87287 5.78318 0.00312863 -0.00841684 -0.0199537 3
4 1 -2.07127 -0.813343 6.61272 0.00635092 0.00373611 -0.0190909 3
60 1 -1.00765 -2.88327 6.57519 0.00796067 -0.00129425 -0.0181623 3
19 1 -1.72048 -1.1283 7.95634 0.00204444 -0.000127729 -0.0114608 3
58 1 -1.02038 -2.37905 7.95512 0.00132287 -0.00196629 -0.0172347 3
34 1 0.0592643 -2.59971 8.88474 0.00693482 -0.00132935 -0.0166259 3
43 1 -1.41912 -0.042087 8.8743 0.00944587 -0.00686443 -0.0110086 3
24 1 -0.264768 -0.285301 9.69092 -0.000866732 -0.00535156 -0.0189565 3
36 1 0.222577 -3.47086 6.08618 -0.000548791 -0.00639881 -0.0146981 3
26 1 2.88173 -2.07197 4.24483 0.0014305 -0.00191533 -0.0186139 3
38 1 3.9877 -0.0770924 4.52504 0.00813155 -0.00175672 -0.0187051 3
52 1 0.774782 -3.0805 4.82551 0.00330081 -0.00376266 -0.0183525 3
40 1 4.03068 -1.45984 4.8986 0.00604726 -0.00364481 -0.012303 3
50 1 2.16592 -3.02781 4.93843 0.011496 -0.00982416 -0.0129014 3
16 1 4.33709 -1.78153 6.23547 0.000989043 0.00413406 -0.0169865 3
35 1 2.50147 -3.43904 6.29272 -0.00305106 0.00187101 -0.0204533 3
12 1 1.30855 -3.65988 7.00497 0.00350946 -0.000306915 -0.0183829 3
2 1 4.70743 -0.816446 7.17891 -0.00206784 -0.0027787 -0.0164443 3
59 1 3.62182 -2.80397 6.92932 0.00325568 -0.00247371 -0.0190824 3
11 1 1.21442 -3.23141 8.33858 -0.00065515 -0.00761141 -0.0205556 3
15 1 4.21326 -1.18331 8.48314 0.00166552 -0.00128031 -0.017511 3
57 1 3.58362 -2.47027 8.33613 -0.00237866 -0.00139876 -0.0151878 3
33 1 2.33604 -2.59879 9.02733 0.00318135 -0.00144922 -0.0176869 3
48 1 0.469612 -1.50137 9.74619 -0.00498641 -0.00111791 -0.0189814 3
46 1 1.85537 -1.54112 9.8863 -0.000431298 -0.00109638 -0.0177233 3
22 1 2.55495 -0.297497 9.97442 -0.000527386 0.0088166 -0.0226145 3
39 1 3.82122 -0.0866701 9.32807 0.00183649 0.0026395 -0.0246782 3
18 1 -1.44884 0.919268 5.0097 0.00260027 0.000361797 -0.0210395 3
56 1 -0.780176 2.12724 5.15087 -0.0069586 0.00631867 -0.0212094 3
3 1 -2.07665 0.58674 6.24831 0.0103593 0.00518129 -0.0208456 3
54 1 -0.945292 2.64777 6.46911 0.00244831 0.00416245 -0.0197111 3
30 1 0.155454 3.36712 7.08713 0.00604373 0.000166612 -0.0150688 3
17 1 -1.72836 1.65035 7.15948 0.00556443 0.000274691 -0.0161831 3
41 1 -1.32453 1.34487 8.44403 0.00298112 0.00536915 -0.0153117 3
23 1 -0.187402 1.97804 9.03797 0.00954316 -0.00446082 -0.0211225 3
32 1 0.34743 2.3665 4.3364 0.0050797 0.0061686 -0.0216994 3
31 1 2.65097 2.41691 4.48453 0.00176158 0.0131925 -0.0176823 3
10 1 1.45402 3.04355 4.99199 0.00082358 0.00323083 -0.013518 3
14 1 4.24704 0.889198 5.51245 0.00029579 -0.00322632 -0.0120049 3
55 1 3.64972 2.16689 5.53591 -0.00414013 0.00620605 -0.0256514 3
9 1 1.3665 3.53615 6.3498 0.00397576 -0.000799918 -0.0231086 3
1 1 4.64788 0.575864 6.82046 -0.00576267 -0.00328098 -0.0181093 3
53 1 3.62598 2.61345 6.86429 0.0029545 -0.00281371 -0.0161942 3
29 1 2.46453 3.28804 7.24976 0.00525763 0.00452085 -0.0243899 3
13 1 4.3364 1.72385 7.69103 0.00620997 -0.00162259 -0.0111268 3
47 1 0.520646 2.95944 8.39482 -0.00186843 -0.00690708 -0.0163994 3
37 1 3.86308 1.29091 8.96933 0.00265112 -0.00155542 -0.0174568 3
45 1 1.95275 2.91743 8.52865 -0.00138061 0.00649058 -0.0214165 3
6 1 0.437973 0.945318 9.7869 -0.000238306 -0.00213541 -0.0143932 3
21 1 2.61613 1.89477 9.33642 0.00130809 -0.000739345 -0.0164609 3
5 1 1.84132 0.903452 9.97904 0.00212157 0.00163792 -0.0186162 3
