ITEM: TIMESTEP
18100
ITEM: NUMBER OF ATOMS
60
ITEM: BOX BOUNDS pp pp pp
-1.4715758017245314e+01 1.5057610017245315e+01
-1.2710055654020760e+01 1.2664508654020761e+01
-5.0001035148846022e+01 1.0000103514884636e+02
ITEM: ATOMS id type x y z vx vy vz c_coord
8 1 -0.301434 -1.29615 12.2813 -0.000924861 -0.00245269 -0.0194789 3
27 1 -0.987939 -0.04441 12.3918 0.002875 -0.00334167 -0.0166227 3
28 1 -1.0321 -2.21993 13.1317 0.0040358 0.000198526 -0.0131688 3
42 1 -2.19358 -0.204655 13.1149 0.00520899 0.00143826 -0.0174487 3
44 1 -2.19683 -1.54993 13.5476 0.00501928 0.000415414 -0.0173984 3
52 1 -0.356302 -3.20524 13.9625 0.00158161 4.8977e-05 -0.0188848 3
20 1 -2.66816 -1.81996 14.8458 0.00736583 -0.0054249 -0.0146403 3
36 1 -0.848462 -3.47727 15.2552 -0.000103392 0.00170359 -0.0146241 3
4 1 -3.16967 -0.79647 15.7156 0.00377423 0.00312839 -0.019581 3
60 1 -2.02599 -2.77985 15.6766 0.00392367 0.00192427 -0.00995771 3
7 1 1.14147 -1.29295 12.2682 0.0026842 -0.00800087 -0.0200811 3
25 1 1.79089 -0.0482241 12.3618 0.000737159 -0.000709758 -0.0123148 3
26 1 1.79251 -2.21786 13.162 -0.0028192 0.00938741 -0.0160976 3
38 1 2.87471 -0.182376 13.3223 -0.00508787 -0.00466802 -0.0153727 3
40 1 2.88987 -1.55141 13.7542 -0.00802377 0.00323978 -0.01596 3
50 1 1.08444 -3.10123 14.0416 0.00505104 -0.00263038 -0.0167598 3
16 1 3.278 -1.76439 15.125 0.00171412 -0.00176957 -0.0138445 3
35 1 1.45598 -3.40812 15.3478 0.00177319 -0.00899331 -0.018423 3
32 1 -0.749941 2.24865 13.232 0.003743 0.00442261 -0.0195474 3
51 1 -0.266575 1.14464 12.4656 0.000818976 0.0026204 -0.0167209 3
18 1 -2.6054 0.883254 13.9582 0.00774408 0.00337111 -0.0201764 3
56 1 -1.9051 2.13504 14.0104 0.00547104 0.00499067 -0.0213559 3
3 1 -3.16081 0.591539 15.2738 0.0102191 -0.00510057 -0.0179465 3
54 1 -2.05202 2.60429 15.3435 -0.0001024 0.00044132 -0.0190224 3
30 1 -0.867981 3.30425 15.9023 0.00428361 0.000225734 -0.0119933 3
10 1 0.386705 2.96025 13.7334 0.00434092 -0.0020954 -0.0216989 3
31 1 1.5563 2.27174 13.2842 -0.00446092 0.00196091 -0.0210619 3
49 1 1.12763 1.17752 12.4625 0.00435673 0.00938281 -0.014857 3
14 1 3.30864 0.84946 14.1519 -0.00560661 0.00746336 -0.0141002 3
55 1 2.66633 2.11766 14.1396 -0.00573479 0.000672104 -0.0160503 3
9 1 0.315186 3.47041 15.1116 0.00186137 0.0129999 -0.0142574 3
1 1 3.68332 0.552133 15.4979 -0.00303286 -0.00340914 -0.0149307 3
53 1 2.60918 2.61752 15.4896 0.00270021 -0.00776144 -0.0169182 3
19 1 -2.76199 -1.0729 17.0675 0.000911616 -0.00285823 -0.0197217 3
58 1 -2.04282 -2.30328 17.0447 0.00726883 -0.00308608 -0.0193332 3
34 1 -0.853306 -2.44872 17.8286 0.0027012 -0.000664796 -0.0255926 3
48 1 -0.395637 -1.31401 18.4994 -0.0036554 -0.00621463 -0.0152991 3
24 1 -1.08234 -0.114359 18.5084 0.00638779 -0.00710952 -0.013644 3
11 1 0.291523 -3.20414 17.4656 0.000420728 0.000465738 -0.0199815 3
12 1 0.288988 -3.69363 16.1334 0.000800111 -0.00765105 -0.0160965 3
2 1 3.72214 -0.779744 15.9847 0.00271071 -0.00491403 -0.0155741 3
59 1 2.57289 -2.72532 15.9486 0.0041539 0.000417124 -0.0214924 3
15 1 3.39518 -1.07448 17.3603 0.00476881 0.00724475 -0.0126049 3
57 1 2.67943 -2.32217 17.3431 -0.00213954 -0.00272182 -0.0183036 3
33 1 1.48339 -2.57304 18.0293 -0.000620342 -0.00450695 -0.0217501 3
46 1 1.02128 -1.33107 18.6156 0.00325853 0.00226034 -0.0123414 3
22 1 1.72346 -0.0878124 18.6357 0.00781048 -0.00322922 -0.0195484 3
17 1 -2.80943 1.66985 16.1062 -0.00186694 0.00574094 -0.0280932 3
41 1 -2.35524 1.43132 17.4153 0.00193512 0.000675384 -0.0228082 3
47 1 -0.418415 3.06337 17.2169 -0.00036453 0.00032818 -0.0238039 3
6 1 -0.427882 1.09971 18.6507 0.00848132 0.000607309 -0.00668359 3
23 1 -1.15419 2.08949 17.9583 0.006866 -0.00308237 -0.0149711 3
43 1 -2.29187 0.0775021 17.8374 0.00235525 0.00523815 -0.0172393 3
29 1 1.4666 3.35159 15.9667 0.000714584 0.0100934 -0.0181496 3
13 1 3.34728 1.6945 16.3137 0.00174843 0.00380038 -0.0149727 3
37 1 2.98336 1.46057 17.6932 -0.000648631 -0.000250255 -0.0153061 3
45 1 0.991454 3.04019 17.2552 -0.00165076 -0.002096 -0.023087 3
5 1 0.993861 1.10753 18.6575 0.00373092 -0.00256975 -0.0121645 3
21 1 1.7722 2.17252 18.0668 0.00489516 -0.00153697 -0.0200127 3
39 1 2.99643 0.107879 18.122 -0.00610422 0.00230529 -0.0165889 3
