ITEM: TIMESTEP
46300
ITEM: NUMBER OF ATOMS
60
ITEM: BOX BOUNDS pp pp pp
-1.4715758017245314e+01 1.5057610017245315e+01
-1.2710055654020760e+01 1.2664508654020761e+01
-5.0001035148846022e+01 1.0000103514884636e+02
ITEM: ATOMS id type x y z vx vy vz c_coord
4 1 -0.305534 -0.790521 -9.96792 -0.0013302 -0.00074616 -0.0217937 3
19 1 -0.0399099 -1.27492 -8.6138 0.00232852 -0.000763312 -0.0179121 3
20 1 0.337837 -1.65311 -10.8941 0.00449725 0.0027322 -0.0161868 3
8 1 3.05842 -0.793011 -13.0243 0.00248232 -0.009754 -0.0183834 3
7 1 4.48677 -0.818221 -12.7906 0.0020033 0.00132466 -0.0244177 3
44 1 0.956831 -1.20454 -12.1117 -0.00417116 -0.00410501 -0.0150752 3
28 1 2.23232 -1.79684 -12.4758 -0.00148997 -0.00628109 -0.0205004 3
26 1 5.06913 -1.82772 -12.0121 -0.00404607 -0.00469624 -0.0205847 3
52 1 2.8649 -2.80444 -11.6561 -0.00101085 -0.00268438 -0.0173412 3
40 1 6.18768 -1.30582 -11.2931 3.34425e-05 2.91092e-05 -0.0115616 3
50 1 4.27959 -2.83947 -11.4962 0.0060743 -0.00194511 -0.0205473 3
60 1 0.928182 -2.68882 -10.0916 0.00272814 0.00179895 -0.0247115 3
36 1 2.18774 -3.2138 -10.4807 0.00840712 -0.00303059 -0.0227379 3
35 1 4.5037 -3.30993 -10.1759 0.0047933 0.00284899 -0.0180685 3
16 1 6.45057 -1.7422 -9.97064 0.000610834 0.00390265 -0.0175457 3
12 1 3.24539 -3.53339 -9.53617 -0.00220605 0.000633188 -0.0136657 3
59 1 5.60442 -2.70317 -9.40563 -0.000768977 -0.00168591 -0.0167525 3
58 1 0.719464 -2.44473 -8.75071 0.00425354 -0.00316311 -0.0127658 3
2 1 6.7429 -0.762276 -8.9532 0.00507994 0.000896286 -0.0220388 3
3 1 -0.177965 0.615758 -10.2209 0.00146266 -9.58117e-05 -0.016889 3
17 1 0.173563 1.49969 -9.15561 0.00338527 0.00450723 -0.0148326 3
18 1 0.429448 1.11359 -11.4035 0.00584632 -0.00213175 -0.0192909 3
27 1 2.33082 0.454123 -12.9891 0.00442934 -0.00357067 -0.0206673 3
42 1 1.01092 0.209285 -12.3775 -0.00178193 0.00942987 -0.0159875 3
51 1 3.03119 1.64305 -12.6756 0.000329072 0.00411235 -0.0127001 3
25 1 5.20629 0.410716 -12.5378 0.0076772 -0.00520557 -0.0166287 3
49 1 4.48642 1.64072 -12.4607 0.00143565 -0.00348097 -0.0116382 3
56 1 1.23432 2.24428 -11.0996 0.00361011 0.00190273 -0.0128595 3
38 1 6.26688 0.103539 -11.5914 0.00825093 0.00929163 -0.0246634 3
32 1 2.47707 2.53352 -11.724 0.00289215 -0.00559726 -0.0140428 3
31 1 4.77425 2.52437 -11.387 0.00841657 0.00999326 -0.016646 3
10 1 3.53945 3.15249 -10.9404 0.00350815 -0.00366499 -0.0208687 3
14 1 6.61521 1.01232 -10.5718 -0.00643961 0.00415343 -0.0166658 3
55 1 5.78419 2.17006 -10.4976 0.00379883 -0.00378363 -0.0209725 3
54 1 1.01925 2.52471 -9.72812 -0.00283912 0.00291634 -0.0164282 3
9 1 3.26397 3.25538 -9.56092 0.00581268 -0.00271278 -0.00967083 3
1 1 6.89378 0.618401 -9.19786 -0.000457332 0.00770692 -0.0151148 3
30 1 2.0263 3.07564 -8.99111 0.00596861 0.00492554 -0.0152894 3
53 1 5.5417 2.45344 -9.10012 -0.0022187 -0.00134756 -0.0193637 3
29 1 4.28638 2.98461 -8.64513 -0.00278483 -0.00025433 -0.0169827 3
13 1 6.20121 1.46554 -8.26491 0.00873107 0.00579548 -0.0223377 3
43 1 0.251398 -0.339901 -7.5702 -0.000913965 0.00516586 -0.0220344 3
11 1 2.99984 -3.25782 -8.19709 0.00357214 -0.00366367 -0.0243038 3
57 1 5.30502 -2.43007 -8.0298 0.00137077 -0.00578162 -0.0142785 3
34 1 1.74162 -2.75788 -7.77205 0.00172989 0.00356289 -0.0179966 3
15 1 5.97437 -1.20779 -7.77748 0.0056255 0.00294473 -0.00766766 3
33 1 4.00833 -2.70759 -7.40818 -0.00193385 -0.00462058 -0.0190584 3
39 1 5.36447 -0.360039 -6.78804 0.00890954 -0.00421321 -0.0170315 3
24 1 1.26319 -0.709465 -6.61541 0.00210968 0.00540541 -0.0217728 3
48 1 2.02474 -1.90678 -6.62849 0.00193811 0.00226265 -0.0227547 3
46 1 3.42294 -1.90711 -6.37982 0.00275468 0.00210737 -0.0145603 3
22 1 4.13155 -0.682556 -6.07151 0.00296426 -0.00600274 -0.0201072 3
41 1 0.344502 1.04891 -7.8214 0.000181051 0.000251354 -0.0240826 3
47 1 2.20079 2.62521 -7.62655 -0.00267378 0.00215335 -0.0188712 3
23 1 1.35172 1.61393 -7.06023 0.00177752 -0.00171515 -0.0172385 3
37 1 5.37781 0.991929 -7.16551 0.00456409 -0.00370192 -0.0101531 3
45 1 3.6271 2.54672 -7.46473 -0.00340152 -0.0062098 -0.0178393 3
6 1 1.97165 0.513645 -6.33218 0.00816693 0.000385042 -0.0209689 3
21 1 4.2147 1.58042 -6.66941 -0.000244779 0.00627858 -0.0169868 3
5 1 3.37638 0.558441 -6.03261 0.00110121 -0.00411843 -0.0154068 3
