ITEM: TIMESTEP
47600
ITEM: NUMBER OF ATOMS
60
ITEM: BOX BOUNDS pp pp pp
-1.4715758017245314e+01 1.5057610017245315e+01
-1.2710055654020760e+01 1.2664508654020761e+01
-5.0001035148846022e+01 1.0000103514884636e+02
ITEM: ATOMS id type x y z vx vy vz c_coord
4 1 -0.00430165 -0.778953 -11.1735 0.00420594 -0.00550544 -0.0153623 3
19 1 0.298277 -1.23381 -9.86753 0.00529642 -0.000511377 -0.0197307 3
20 1 0.557577 -1.73842 -12.0646 0.00387215 0.00127617 -0.0199819 3
8 1 3.24728 -0.810964 -14.216 -0.001383 0.00057185 -0.0138465 3
7 1 4.64059 -0.797526 -13.9954 0.0037163 -0.00543234 -0.0126847 3
44 1 1.19873 -1.29006 -13.2444 0.00406073 0.00249691 -0.0152091 3
28 1 2.42983 -1.88593 -13.7073 0.0010071 0.00620979 -0.0143423 3
26 1 5.15091 -1.8964 -13.2082 -0.000556389 -0.00309873 -0.0195182 3
52 1 2.98383 -2.92334 -12.9143 0.00624699 0.00224324 -0.0138773 3
40 1 6.17995 -1.30371 -12.3803 0.00295655 0.00357142 -0.00958513 3
50 1 4.35423 -2.95027 -12.7294 -0.00653439 -0.00311778 -0.0171916 3
60 1 1.09894 -2.86291 -11.3559 0.00435795 -0.000994531 -0.0206182 3
36 1 2.31356 -3.46597 -11.778 0.00750462 0.000293839 -0.0198494 3
35 1 4.59658 -3.43139 -11.3989 0.000790549 -0.00443871 -0.0165448 3
16 1 6.47952 -1.81837 -11.0615 -0.00318691 -0.00335534 -0.0147915 3
12 1 3.31694 -3.77404 -10.8044 0.010392 0.000852605 -0.0219521 3
59 1 5.64563 -2.9107 -10.5529 0.0102609 0.00066443 -0.0230022 3
58 1 0.938156 -2.48994 -9.93379 0.00125612 0.00127569 -0.0194638 3
2 1 6.66009 -0.879283 -10.0216 0.000495882 -0.0044831 -0.0229695 3
43 1 0.519194 -0.305934 -8.80398 0.00439408 -0.00557336 -0.0227117 3
11 1 3.15663 -3.45406 -9.40018 -0.00360709 0.00655551 -0.0138126 3
57 1 5.45812 -2.61227 -9.15671 0.00318831 0.00616979 -0.0273148 3
34 1 1.94114 -2.77688 -9.02492 0.00660836 -0.00415423 -0.0192102 3
15 1 6.11725 -1.37537 -8.84562 -0.00232436 -0.000219199 -0.0204945 3
33 1 4.18838 -2.84901 -8.62571 -0.00871052 0.00543417 -0.00919819 3
3 1 -0.0179656 0.626882 -11.4327 0.004793 -0.000344846 -0.0209544 3
17 1 0.283984 1.58378 -10.3677 0.00628125 -0.0038426 -0.0181377 3
18 1 0.609834 1.07394 -12.6228 0.00350953 0.00520084 -0.0164675 3
27 1 2.55907 0.437924 -14.0635 0.0018704 0.00653898 -0.0185514 3
42 1 1.29441 0.142774 -13.5067 -0.00337495 -0.00552135 -0.020305 3
51 1 3.14336 1.73001 -13.8043 -0.00226107 0.0055067 -0.0199173 3
25 1 5.26803 0.436777 -13.5738 -0.00399181 -0.00127478 -0.0142301 3
49 1 4.51242 1.62441 -13.4794 0.00490348 0.00140151 -0.00926434 3
56 1 1.24707 2.31229 -12.2733 0.00672024 0.00257702 -0.0208215 3
38 1 6.22488 0.11885 -12.597 0.00758445 -0.003112 -0.00982769 3
32 1 2.48936 2.60276 -12.8635 0.00202878 0.00239768 -0.0161493 3
31 1 4.81812 2.57738 -12.4282 0.00297934 0.00522548 -0.0234377 3
10 1 3.56013 3.18916 -12.0364 -0.00281206 -0.00221345 -0.0198246 3
14 1 6.45562 0.981423 -11.5286 -0.00248609 -0.00242432 -0.0194581 3
55 1 5.79357 2.21632 -11.4276 -0.0061605 -0.00257565 -0.0201961 3
54 1 1.09504 2.61683 -10.9095 0.00805767 9.47093e-05 -0.014307 3
9 1 3.44366 3.54642 -10.6318 0.000678557 0.00403689 -0.0246555 3
1 1 6.76671 0.522894 -10.2141 0.00643933 -0.00395687 -0.0141425 3
30 1 2.13423 3.16545 -10.1186 0.00228053 -0.000190589 -0.0236425 3
53 1 5.69039 2.595 -10.0317 -0.0021346 0.00362765 -0.0134786 3
29 1 4.47763 3.32869 -9.64945 0.00557728 -0.00419002 -0.0129672 3
13 1 6.22513 1.48815 -9.32302 0.00531661 -0.00378564 -0.0123703 3
41 1 0.518128 1.11534 -9.02121 0.00230718 -0.00611518 -0.016925 3
47 1 2.42253 2.7146 -8.79348 0.000919053 0.00579668 -0.0179028 3
39 1 5.5815 -0.374807 -7.94547 -0.00678499 0.00923111 -0.0247163 3
24 1 1.56008 -0.5679 -7.86115 0.00694677 0.000626062 -0.0193041 3
48 1 2.22893 -1.82407 -8.01621 0.00304188 -0.00485511 -0.0180157 3
46 1 3.62295 -1.83854 -7.75432 -0.000271062 -0.00511895 -0.0209984 3
22 1 4.29485 -0.625686 -7.3919 -0.00274427 -0.00567744 -0.0142119 3
23 1 1.60765 1.68656 -8.25117 0.00302629 0.00213842 -0.0189407 3
37 1 5.58395 1.03737 -8.20372 0.00158802 0.00613861 -0.0245491 3
45 1 3.80054 2.78542 -8.53561 0.00305142 0.00378466 -0.0150009 3
6 1 2.23737 0.605762 -7.56387 0.01089 0.00115539 -0.0165929 3
21 1 4.39144 1.69917 -7.7427 0.00211974 -0.00911664 -0.0186716 3
5 1 3.60396 0.609606 -7.3076 0.000701582 0.000796444 -0.0140453 3
