ITEM: TIMESTEP
33000
ITEM: NUMBER OF ATOMS
60
ITEM: BOX BOUNDS pp pp pp
-1.4715758017245314e+01 1.5057610017245315e+01
-1.2710055654020760e+01 1.2664508654020761e+01
-5.0001035148846022e+01 1.0000103514884636e+02
ITEM: ATOMS id type x y z vx vy vz c_coord
44 1 -0.459798 -1.38031 0.0177059 0.00397085 0.00501609 -0.0254332 3
20 1 -1.11866 -1.71796 1.22237 -0.00361867 -2.53677e-05 -0.019172 3
4 1 -1.70566 -0.740129 2.14517 -0.000903082 0.00366575 -0.0181298 3
60 1 -0.48927 -2.72906 2.02382 0.00312889 -0.000793871 -0.0220188 3
19 1 -1.44427 -1.18321 3.50143 4.16173e-05 -0.00779285 -0.0189207 3
58 1 -0.636635 -2.37075 3.41588 0.00298996 0.00144094 -0.0148495 3
28 1 0.729996 -1.95395 -0.498712 0.000753202 -0.004645 -0.0133429 3
8 1 1.53823 -0.974316 -1.20271 0.00296487 0.00343758 -0.0151347 3
7 1 2.98411 -1.01193 -1.10481 0.0058804 -0.00291255 -0.0141836 3
26 1 3.54946 -1.99182 -0.238539 0.00669514 0.000803816 -0.0133936 3
38 1 4.75606 -0.0838809 -0.0729706 0.00438834 0.000706515 -0.0155154 3
52 1 1.35234 -2.88256 0.327996 0.00346026 0.000422685 -0.0194321 3
40 1 4.66674 -1.4319 0.425539 8.98619e-05 -0.0052734 -0.0168777 3
50 1 2.74731 -2.82904 0.501238 0.00363059 -0.002567 -0.0191834 3
36 1 0.732355 -3.36541 1.54484 0.00212409 8.89314e-05 -0.00929803 3
16 1 5.02259 -1.72043 1.8254 0.010232 -0.00396534 -0.0172766 3
35 1 3.0624 -3.25481 1.83474 0.00644894 -0.00295223 -0.0236663 3
12 1 1.81327 -3.52244 2.50046 0.00812927 0.00096574 -0.0227449 3
2 1 5.36139 -0.794412 2.82132 0.000373688 -0.000774966 -0.0182994 3
59 1 4.23337 -2.73263 2.49692 0.000117683 0.000594546 -0.024477 3
11 1 1.64934 -3.15469 3.85096 0.00154044 0.00294988 -0.0194954 3
57 1 4.05584 -2.3517 3.89572 -0.00249913 0.00387416 -0.0171637 3
42 1 -0.391393 9.71569e-05 -0.362706 -0.00272236 0.00556507 -0.0231861 3
18 1 -0.997109 0.944751 0.522258 0.0014782 -0.00412588 -0.0155486 3
56 1 -0.280824 2.1461 0.718838 -0.00537131 0.00531783 -0.0163754 3
3 1 -1.67066 0.61592 1.79169 0.00205243 0.000459217 -0.0220177 3
54 1 -0.481348 2.53008 2.05853 0.00160193 0.00331785 -0.0185972 3
17 1 -1.2968 1.60663 2.77371 -0.00154045 -0.00169828 -0.0172181 3
27 1 0.748434 0.214292 -1.14854 -0.00230688 -0.00344314 -0.023117 3
51 1 1.45601 1.43154 -0.954695 -0.00322033 0.00543655 -0.0196274 3
25 1 3.67487 0.244059 -0.966223 0.000467861 -0.000478494 -0.0139893 3
49 1 2.89669 1.42458 -0.852954 0.0099452 -0.00274672 -0.0163563 3
32 1 0.934751 2.36056 -0.000140466 0.000833793 0.000281478 -0.0230894 3
31 1 3.28843 2.40997 0.162107 0.00402837 -0.00131722 -0.0182529 3
10 1 2.04713 2.9296 0.634698 0.00107512 -0.00635554 -0.0156207 3
14 1 5.03365 0.858872 0.972585 -0.00184734 0.00211439 -0.0239148 3
55 1 4.33262 2.11304 1.09923 0.0100923 -0.00375322 -0.0170275 3
9 1 1.88684 3.33953 1.98532 -0.00147971 -0.000185853 -0.0117927 3
30 1 0.618024 3.16579 2.69573 -0.000169805 -1.1595e-05 -0.0203717 3
1 1 5.29965 0.538529 2.35325 0.00221943 0.00675314 -0.0176444 3
53 1 4.21808 2.53908 2.46093 0.00647976 -0.00702816 -0.0174416 3
29 1 2.96598 3.11086 2.90001 0.0121051 -0.00563164 -0.0136075 3
13 1 4.87339 1.54076 3.25405 0.00738902 0.00444044 -0.0148404 3
43 1 -1.04576 -0.213756 4.52122 0.00384135 -0.00381774 -0.0188756 3
24 1 0.0964006 -0.385461 5.41083 0.000706535 0.00232805 -0.0107594 3
34 1 0.456019 -2.58516 4.34882 -0.00662142 0.0123505 -0.0190563 3
15 1 4.75497 -1.14198 4.04825 0.00434154 0.00718877 -0.0234871 3
33 1 2.77474 -2.55845 4.51163 0.00323197 0.00232976 -0.0245578 3
48 1 0.794421 -1.5863 5.22749 -0.00492994 0.000564712 -0.0101849 3
46 1 2.21752 -1.53782 5.39208 0.00425545 -0.000599173 -0.01747 3
22 1 3.00852 -0.371627 5.64234 0.00931773 0.0012512 -0.0183038 3
39 1 4.23788 -0.188204 4.92917 -0.00468075 0.00280707 -0.022344 3
41 1 -0.989203 1.17084 4.12731 0.00292795 -0.00466153 -0.0199239 3
23 1 0.178941 1.75677 4.70787 -0.000833894 -0.00412711 -0.018294 3
47 1 0.984238 2.71418 4.01036 0.0052628 -0.00335366 -0.0127165 3
37 1 4.31262 1.20837 4.50887 0.00273181 0.000694451 -0.0121812 3
45 1 2.38311 2.75682 4.14647 0.00574511 -3.33352e-05 -0.0204409 3
6 1 0.827254 0.764363 5.45764 0.00546484 -0.000964846 -0.0102241 3
21 1 3.03907 1.75999 4.88794 -0.00408187 -0.00261163 -0.0145705 3
5 1 2.23146 0.831365 5.61122 -0.00282943 0.000170906 -0.0152088 3
