ITEM: TIMESTEP
40700
ITEM: NUMBER OF ATOMS
60
ITEM: BOX BOUNDS pp pp pp
-1.4715758017245314e+01 1.5057610017245315e+01
-1.2710055654020760e+01 1.2664508654020761e+01
-5.0001035148846022e+01 1.0000103514884636e+02
ITEM: ATOMS id type x y z vx vy vz c_coord
20 1 -0.29088 -1.75414 -5.79646 0.00811557 -0.00214458 -0.0143697 3
4 1 -0.757352 -0.769844 -4.87632 0.0125029 -0.00117975 -0.0176908 3
19 1 -0.454107 -1.17052 -3.57663 0.00975666 -0.00422941 -0.0172323 3
58 1 0.226383 -2.43273 -3.65233 0.00452817 0.00236034 -0.0235429 3
60 1 0.352341 -2.80516 -5.01395 0.00507967 0.000206413 -0.0184446 3
44 1 0.308883 -1.35857 -7.03352 0.00302352 -0.000116184 -0.0161362 3
28 1 1.58691 -1.90051 -7.4413 -0.00546393 0.00180624 -0.0148932 3
8 1 2.40128 -0.84358 -7.96008 0.000858537 -0.0013013 -0.0151762 3
7 1 3.78065 -0.897327 -7.78941 -0.00197567 0.00586515 -0.0163685 3
26 1 4.40778 -1.95615 -7.05155 0.00427743 -8.18661e-05 -0.0147137 3
52 1 2.17854 -2.97085 -6.6646 0.00171041 0.00181553 -0.0214501 3
40 1 5.51681 -1.3531 -6.31935 0.00599821 0.00291911 -0.0130995 3
50 1 3.58816 -2.98367 -6.48006 0.00121965 -0.00208531 -0.0197756 3
36 1 1.60733 -3.40336 -5.42907 0.00670625 -0.00221509 -0.0274827 3
16 1 5.79446 -1.80049 -4.98861 0.00660877 -0.00580714 -0.0224069 3
35 1 3.91221 -3.43842 -5.2017 -0.00167164 -0.0064753 -0.0205544 3
12 1 2.68132 -3.66612 -4.48286 -0.00260871 -0.0052875 -0.0160751 3
2 1 6.0704 -0.845624 -4.02529 -0.00666766 -0.00130594 -0.0163023 3
59 1 5.00764 -2.88422 -4.46678 -0.00248912 -0.0081705 -0.0162733 3
11 1 2.49283 -3.30628 -3.12476 0.00261408 -0.00289994 -0.0176267 3
57 1 4.76934 -2.4612 -3.08544 -0.000140005 -0.00502522 -0.02 3
34 1 1.21807 -2.72535 -2.66619 0.00199029 -0.00400612 -0.020831 3
15 1 5.44574 -1.26238 -2.81365 -0.000370306 -0.00513598 -0.0190666 3
18 1 -0.190608 1.03173 -6.46108 -0.00217127 0.00189946 -0.0205968 3
3 1 -0.748008 0.599842 -5.19042 0.00470321 -0.00264169 -0.0250294 3
17 1 -0.433257 1.60562 -4.2561 0.00645596 -0.0017863 -0.0271698 3
41 1 -0.15275 1.19204 -2.89906 0.00849984 0.00138395 -0.0235434 3
54 1 0.421754 2.5572 -4.81918 0.00337615 -0.00076292 -0.0121845 3
42 1 0.41168 0.0333433 -7.3355 -0.00491836 0.00348587 -0.0137174 3
56 1 0.516278 2.29018 -6.24578 -0.00160826 -0.000889687 -0.0242649 3
27 1 1.61265 0.36906 -8.03493 0.00417476 -0.00101088 -0.00479122 3
51 1 2.34219 1.5557 -7.68261 0.00751474 0.00289847 -0.0116026 3
25 1 4.47946 0.279124 -7.52614 0.00621341 -0.0010748 -0.0150951 3
49 1 3.74932 1.53969 -7.48054 -0.00265138 -0.00473153 -0.0120503 3
38 1 5.54844 0.0669849 -6.6257 -0.00334804 -0.0046518 -0.00971587 3
32 1 1.8266 2.54894 -6.82707 0.00222754 0.000762152 -0.0186347 3
31 1 4.02076 2.50371 -6.4274 0.00404058 0.000662473 -0.0131461 3
10 1 2.85774 3.06032 -6.03771 -0.00597274 0.00525772 -0.0150671 3
14 1 5.86988 1.01281 -5.60674 -0.000935319 0.00487941 -0.0174703 3
55 1 5.08561 2.21364 -5.49062 -0.000549197 -0.000316788 -0.0178834 3
9 1 2.69555 3.47742 -4.66613 0.00506572 0.00587988 -0.0260325 3
30 1 1.47364 3.17016 -4.07316 -0.00106297 -0.000885954 -0.021121 3
1 1 6.07613 0.547159 -4.25762 0.00587172 0.00525558 -0.019916 3
53 1 4.94361 2.59124 -4.13973 0.000665013 0.00964552 -0.0232334 3
29 1 3.74781 3.24988 -3.71663 -0.001776 0.00144707 -0.0133839 3
13 1 5.55474 1.52087 -3.34049 -0.0059972 -0.000932397 -0.0183165 3
47 1 1.75538 2.68504 -2.72319 0.0100971 0.000823054 -0.016284 3
43 1 -0.205117 -0.192102 -2.5508 0.00929154 -0.00258511 -0.0242275 3
33 1 3.56843 -2.74257 -2.44456 -0.0021949 -0.00358027 -0.0206279 3
39 1 4.90351 -0.304059 -1.90951 -0.00356783 -0.00413986 -0.0151994 3
24 1 0.822484 -0.480003 -1.56664 0.00229389 0.00514603 -0.0119132 3
48 1 1.54316 -1.72325 -1.68493 0.00297656 -0.00522595 -0.020582 3
46 1 2.95486 -1.76718 -1.56159 0.00241538 0.00367912 -0.0173262 3
22 1 3.66359 -0.525301 -1.25838 0.00257775 0.00734346 -0.0216069 3
23 1 0.983325 1.70229 -2.16705 0.00319047 0.00193777 -0.0166225 3
37 1 4.99118 1.1312 -2.09198 0.00500373 0.00593472 -0.0160082 3
45 1 3.16696 2.7728 -2.47018 0.00584476 0.00311255 -0.0130281 3
6 1 1.51988 0.742491 -1.34016 0.00150339 0.00636607 -0.0190318 3
21 1 3.73351 1.73238 -1.71409 -0.00101994 0.000545436 -0.0180507 3
5 1 2.95026 0.718384 -1.11972 0.00506636 -0.00194484 -0.0122572 3
