ITEM: TIMESTEP
21400
ITEM: NUMBER OF ATOMS
60
ITEM: BOX BOUNDS pp pp pp
-1.4715758017245314e+01 1.5057610017245315e+01
-1.2710055654020760e+01 1.2664508654020761e+01
-5.0001035148846022e+01 1.0000103514884636e+02
ITEM: ATOMS id type x y z vx vy vz c_coord
8 1 0.0278062 -1.18032 9.36567 0.0080614 0.00266483 -0.0200696 3
7 1 1.45245 -1.22624 9.44194 -0.000231606 0.00391311 -0.0164971 3
27 1 -0.668747 0.00564024 9.25559 0.00496171 0.00258056 -0.0176023 3
51 1 0.0431935 1.24669 9.34539 -0.00193321 0.00306919 -0.0133281 3
25 1 2.10274 0.0519638 9.56952 0.00112709 -0.00254653 -0.0106053 3
49 1 1.43471 1.25972 9.49035 -0.00228545 0.00114422 -0.0166303 3
28 1 -0.721732 -2.26172 10.0086 -0.000696359 -0.00136128 -0.0145284 3
42 1 -1.83149 -0.181545 9.98967 -0.00340497 -0.0014064 -0.0249578 3
44 1 -1.85994 -1.51154 10.5387 -0.00149908 -0.00291349 -0.0149209 3
52 1 0.0204955 -3.2102 10.7573 0.00414411 0.00610858 -0.0203111 3
20 1 -2.28958 -1.81568 11.8606 -1.82302e-05 0.00013019 -0.019825 3
36 1 -0.452875 -3.48281 12.1328 0.00768424 0.00121478 -0.0256686 3
4 1 -2.7532 -0.754649 12.6227 0.00660261 -0.00135619 -0.0168432 3
60 1 -1.61173 -2.78265 12.6461 0.0062395 -0.00112709 -0.0132501 3
19 1 -2.40969 -1.0619 13.9797 0.0160441 0.000910002 -0.0203539 3
58 1 -1.71252 -2.31242 14.0194 0.00582572 0.00198511 -0.0209632 3
34 1 -0.5694 -2.44713 14.8189 0.00545334 -0.00453723 -0.0179096 3
26 1 2.21998 -2.21826 10.1774 0.00640759 -0.000265992 -0.0148543 3
38 1 3.26279 -0.196822 10.3971 0.00185023 -0.00197919 -0.0161829 3
40 1 3.28903 -1.54463 10.7695 0.000656027 -0.00319831 -0.0167548 3
50 1 1.4628 -3.23216 10.8377 0.000815491 -0.00514275 -0.0187332 3
16 1 3.73184 -1.83599 12.0854 -0.000854498 0.00116384 -0.0171675 3
35 1 1.84654 -3.42723 12.2087 -0.00479009 -0.0114093 -0.0126602 3
12 1 0.667783 -3.58365 12.9697 0.00305642 -0.00672908 -0.0201718 3
2 1 4.12272 -0.747412 12.964 -0.00245633 -0.00387016 -0.0146236 3
59 1 2.9435 -2.77226 12.8441 0.00115272 0.00385205 -0.0178568 3
11 1 0.585701 -3.07396 14.2957 0.00507558 -0.00317146 -0.0167687 3
15 1 3.59199 -1.03125 14.2458 -0.00252246 -0.00148185 -0.0164703 3
57 1 2.86129 -2.27217 14.2008 0.00120564 0.00806068 -0.0168737 3
33 1 1.70163 -2.48967 14.8859 -5.5173e-05 -0.00935755 -0.0158529 3
32 1 -0.457893 2.38821 10.0993 -0.00142469 0.00454751 -0.0191291 3
18 1 -2.3098 0.877574 10.8102 0.00324273 0.00484768 -0.0215446 3
56 1 -1.62007 2.16227 10.8967 -0.00274524 0.00313156 -0.0168052 3
3 1 -2.80224 0.598937 12.1421 0.0048115 -0.00314053 -0.0210857 3
54 1 -1.60448 2.59685 12.2148 0.00417534 0.00242911 -0.0217518 3
30 1 -0.508498 3.28173 12.8789 0.00290496 -0.0039655 -0.0192847 3
17 1 -2.23431 1.62081 12.965 0.00825 -0.0046795 -0.0164053 3
41 1 -1.90392 1.34016 14.3159 0.00912852 -0.0037813 -0.017062 3
47 1 -0.135941 3.02808 14.2483 0.0106273 0.000473716 -0.0190106 3
23 1 -0.849103 2.03255 15.0267 0.00410202 0.00207369 -0.0116325 3
43 1 -1.96097 0.0156013 14.8497 0.0066263 -0.000822402 -0.0204498 3
10 1 0.674067 3.01638 10.7572 0.00232779 0.00653455 -0.027963 3
31 1 1.83039 2.33879 10.3443 0.00755538 0.00344737 -0.016376 3
14 1 3.73328 0.90916 11.1942 -0.00538506 0.000550797 -0.016643 3
55 1 3.03162 2.17143 11.1596 0.000624043 -0.00111659 -0.01564 3
9 1 0.677556 3.43813 12.1406 -0.000612187 0.00969038 -0.021257 3
1 1 4.16578 0.615184 12.5363 0.00728829 -0.00068858 -0.0208503 3
53 1 3.00634 2.60795 12.5133 0.00574689 0.00208807 -0.017402 3
29 1 1.81968 3.24622 12.9876 -0.00149017 0.000515364 -0.0160278 3
13 1 3.60986 1.6308 13.3216 -0.00460131 -0.00503004 -0.0163549 3
37 1 3.14247 1.36197 14.6387 0.000593502 0.00367523 -0.0259887 3
45 1 1.34402 3.0487 14.3246 -0.00291908 -0.00273928 -0.0166589 3
39 1 3.14084 0.00979651 15.13 -0.00151272 -0.00208066 -0.0246708 3
21 1 2.02006 2.08994 15.169 -0.000178537 -0.00249961 -0.0104372 3
48 1 -0.213935 -1.44257 15.7762 -0.00670595 0.00644977 -0.0232776 3
24 1 -0.86682 -0.173054 15.7552 -0.000596198 -0.00359073 -0.0219705 3
46 1 1.26055 -1.51953 15.811 0.00533403 2.11209e-05 -0.0165725 3
22 1 1.92183 -0.239291 15.8941 -0.00246971 5.49501e-06 -0.0214542 3
6 1 -0.152583 1.04744 15.8062 0.00575449 0.00148973 -0.0169554 3
5 1 1.23797 1.03777 15.8327 -0.00112068 0.00557124 -0.0195202 3
