ITEM: TIMESTEP
50500
ITEM: NUMBER OF ATOMS
168
ITEM: BOX BOUNDS pp pp pp
-1.4715758017245314e+01 1.5057610017245315e+01
-1.2710055654020760e+01 1.2664508654020761e+01
-5.0001035148846022e+01 1.0000103514884636e+02
ITEM: ATOMS id type x y z vx vy vz c_coord
92 1 -10.8874 -9.2526 19.943 0.00113664 -0.00559797 -0.00198052 3
93 1 -10.8771 -6.76901 20.1976 0.00442971 0.0010812 -0.00284426 3
103 1 -9.44261 -9.23973 20.0294 -0.00577135 0.00896348 -0.00689984 3
104 1 -8.73492 -7.97947 20.236 -0.00319822 0.00485935 -0.00596278 3
105 1 -9.42211 -6.70963 20.2211 0.00684175 0.000693884 -0.00122573 3
122 1 -7.29468 -7.96727 20.2943 -0.00591169 0.000114266 -0.0115701 3
132 1 -6.56971 -9.17677 20.1334 -0.00618571 -0.00714445 -0.0117897 3
133 1 -6.58459 -6.68641 20.1944 0.0115095 -0.00225016 -0.00498592 3
143 1 -5.14488 -9.15383 20.0178 0.0110274 0.0018404 -0.0104967 3
144 1 -4.40616 -7.89107 20.0234 0.00142782 0.0130957 -0.0122996 3
145 1 -5.16342 -6.6938 20.0356 -0.00556396 -0.00208749 0.00340933 3
162 1 -3.0465 -7.95216 19.8076 0.00117617 -0.000330047 0.00978626 3
172 1 -2.33159 -9.18034 19.8919 -0.00190257 0.00439828 -0.0001791 3
173 1 -2.36354 -6.74418 19.7311 -0.00379242 -0.000814021 0.00204858 3
183 1 -0.932248 -9.19482 19.7744 0.00486163 -0.00126511 0.0169502 3
184 1 -0.247655 -8.00125 19.5171 -0.000870866 -0.00452129 0.00973002 3
185 1 -0.984264 -6.74148 19.5947 -0.00974709 -0.00707774 0.00906144 3
202 1 1.22225 -8.04301 19.3823 0.00609457 -0.00630313 0.00600345 3
212 1 1.90553 -9.25356 19.6451 0.00762909 -0.000397695 -0.00402881 3
213 1 1.9519 -6.75857 19.37 0.0160893 -0.00252679 0.00595016 3
223 1 3.28572 -9.27268 19.7572 0.00261309 -0.00370534 0.00318447 3
224 1 4.03681 -8.03171 19.6822 0.00433628 -0.00286386 0.000455913 3
225 1 3.33876 -6.81677 19.3373 0.00992788 -0.00370205 -0.00128092 3
242 1 5.44686 -8.03015 19.8864 0.00872311 0.00466829 -0.00664384 3
252 1 6.21881 -9.23404 19.9559 -0.00170613 0.00872071 0.00525828 3
253 1 6.17703 -6.76087 19.8026 0.00523805 -0.00613763 0.00450152 3
265 1 7.59745 -6.7195 19.9814 0.00640178 0.000707644 0.000155402 3
263 1 7.6212 -9.20622 20.0101 0.00106119 -0.00314725 0.00662915 3
264 1 8.31848 -7.99414 20.102 -0.00333296 -0.00340569 0.00124651 3
282 1 9.75513 -8.03818 20.0593 0.00448397 -0.00447505 -5.78843e-05 3
292 1 10.5081 -9.20009 20.0281 0.000485464 -0.00223923 -0.000151162 3
293 1 10.4693 -6.76414 20.0142 0.00373745 -0.00445047 0.00346974 3
94 1 -10.8453 -4.27934 19.9729 0.00422885 -0.00162288 -0.00339663 3
95 1 -10.8553 -1.86769 20.0145 0.000382022 0.000162177 -0.00992176 3
106 1 -8.74657 -5.4898 19.9536 -0.000869932 0.00156145 0.00105609 3
107 1 -9.39266 -4.26558 19.8669 -0.000552692 -0.00353167 -0.00457907 3
108 1 -8.67139 -3.02835 19.7764 -0.00224229 -0.00320341 -0.0119733 3
109 1 -9.38551 -1.82867 19.9884 -0.00372965 -0.00549793 -0.0108067 3
110 1 -8.66229 -0.599654 20.0385 -0.00227594 0.010504 -0.007688 3
123 1 -7.2991 -5.44574 19.9076 -0.00733751 -0.00224474 -0.00467877 3
124 1 -7.20516 -3.02335 19.7282 0.000165952 -0.0074528 0.000206694 3
125 1 -7.18173 -0.637747 19.9705 0.00138338 -0.00644861 -0.00425856 3
186 1 -0.162203 -5.5135 19.7425 -0.0049671 0.00104492 0.000146015 3
134 1 -6.53816 -4.28194 19.776 -0.00950147 0.00537164 -0.0104444 3
163 1 -3.02255 -5.47903 19.9038 0.00455981 0.00622093 0.00206548 3
135 1 -6.42131 -1.82275 19.8305 0.000696104 0.00489924 -0.00446592 3
146 1 -4.43343 -5.53237 19.7876 -0.00201218 0.00402196 0.00364775 3
147 1 -5.09904 -4.27645 19.825 0.000915939 0.00697911 -0.0183934 3
148 1 -4.33125 -3.12603 19.9627 0.00593637 -0.00264385 0.000786486 3
149 1 -4.98731 -1.88275 19.9402 -0.00246332 -0.0043907 0.00392988 3
164 1 -2.93619 -3.04555 20.2669 0.00458121 0.00508862 0.00898125 3
174 1 -2.26399 -4.26593 20.0997 0.00282987 -0.0028971 -0.00440062 3
150 1 -4.21992 -0.668361 19.9842 0.00360223 -0.01349 -0.00709227 3
187 1 -0.799645 -4.27602 19.9579 -0.00418202 -0.00153397 0.00366212 3
165 1 -2.84279 -0.581955 20.3981 0.0173323 0.00538123 -0.0057944 3
175 1 -2.14712 -1.8865 20.443 0.0114941 -0.00348073 0.00686543 3
188 1 -0.0457381 -3.04466 20.1582 -0.00478442 0.00583188 -0.00115243 3
189 1 -0.709459 -1.86288 20.4673 -0.00497207 -0.0125928 -0.00120193 3
190 1 0.0382755 -0.648594 20.4641 -0.000326524 0.00629642 -0.000657455 3
203 1 1.21853 -5.4788 19.4939 -0.000430489 -0.00717287 -0.000955881 3
226 1 4.11004 -5.54307 19.3854 0.00719036 0.00189309 0.00366335 3
243 1 5.55907 -5.50174 19.4577 0.00979804 0.000751279 -0.0010774 3
254 1 6.28457 -4.30963 19.1905 0.00883228 -0.000296523 0.00350994 3
255 1 6.35589 -1.89602 18.9477 0.00217591 0.00823061 0.00574654 3
227 1 3.46158 -4.29844 19.269 -0.00323115 -0.00670994 -0.00492713 3
244 1 5.59677 -3.1135 18.9242 0.000384567 -0.00419585 -0.00232931 3
214 1 2.01408 -4.28051 19.4128 -0.00662468 -0.00188475 -0.00366792 3
228 1 4.15454 -3.09965 19.0139 -0.0112342 -0.00737229 -0.00223873 3
245 1 5.66456 -0.629949 18.902 -0.00550992 0.000763177 0.0134986 3
229 1 3.4504 -1.8398 19.0803 0.000672308 0.00294918 -0.00269667 3
230 1 4.20547 -0.609411 18.9358 0.0105102 -0.00179512 0.00602747 3
204 1 1.30329 -3.0622 19.6018 0.00277777 -0.00532414 0.00687101 3
215 1 2.04962 -1.86663 19.5126 -0.000671586 -0.00624846 0.00819754 3
205 1 1.40931 -0.711094 20.0377 0.00227911 0.00928038 -0.00674202 3
267 1 7.62938 -4.3245 19.5493 0.00076825 0.00892916 -0.00393832 3
269 1 7.73015 -1.87562 19.3653 5.40788e-06 0.000259565 -0.00348348 3
266 1 8.32218 -5.48827 19.8957 0.0061435 -0.00792341 -0.00511081 3
268 1 8.44234 -3.07394 19.543 0.00406146 0.0028872 0.00433674 3
270 1 8.46288 -0.610569 19.4103 0.0116134 0.00293394 0.00929865 3
283 1 9.76286 -5.50999 19.948 -0.00531047 -0.00504859 -0.0108994 3
284 1 9.8471 -3.10793 19.8778 0.00340985 -0.00469323 0.00461661 3
285 1 9.85027 -0.59866 19.6064 0.00937689 0.00514846 0.00451185 3
294 1 10.56 -4.35774 19.9527 0.00318192 -0.00786018 -4.06706e-05 3
295 1 10.4981 -1.84488 19.9348 0.000639091 -0.0119109 0.00177312 3
96 1 -10.871 0.554779 20.0677 -0.00118875 0.00449409 -0.00867549 3
97 1 -10.8368 3.02364 19.9163 0.00144436 0.00109838 0.0060905 3
98 1 -10.8448 5.49588 20.1276 0.00364674 -0.0027741 0.0100217 3
111 1 -9.41928 0.597092 20.09 -0.00508383 -0.00503682 -0.0120046 3
112 1 -8.67868 1.84209 20.0018 -0.00775096 -0.00368142 -0.00619187 3
113 1 -9.36709 3.07149 19.8595 -0.0027896 0.00663175 -0.00649501 3
114 1 -8.62689 4.30939 20.0044 -0.000493017 -0.00267574 -0.00951364 3
115 1 -9.38076 5.53857 20.0508 0.000679608 -0.000895366 -0.00652105 3
126 1 -7.20655 1.75197 19.9674 -0.00356483 -0.0112869 -0.00551204 3
127 1 -7.21238 4.29331 19.9298 -0.00600452 -0.00403036 -0.000249641 3
138 1 -6.563 5.51772 19.9369 -0.00689704 0.00887547 -0.0104125 3
195 1 -0.860001 5.4428 19.9374 -0.00523132 0.000474991 0.00709651 3
155 1 -5.15628 5.51545 19.9515 0.00569371 -0.000776471 -0.000946732 3
178 1 -2.34339 5.43808 20.0077 0.00274556 -0.00887209 0.000770433 3
137 1 -6.50891 3.04568 19.984 0.000519605 0.00273321 -0.00819268 3
153 1 -5.064 3.0942 19.9903 -0.00851896 -0.00278023 -0.00115107 3
154 1 -4.34479 4.28121 20.1162 0.00295286 -0.00413277 0.00488913 3
136 1 -6.39453 0.556349 20.0363 -0.00560003 -0.00110346 0.00563963 3
151 1 -4.9653 0.592748 20.0366 0.00709588 -0.00483308 0.00320688 3
167 1 -2.97298 4.24615 20.3352 -0.0117148 -0.00222581 0.00662297 3
152 1 -4.29286 1.85725 20.2033 0.0013178 0.00380129 -9.37712e-05 3
177 1 -2.18204 3.07867 20.4783 0.000300651 0.00475302 0.0144013 3
194 1 -0.0941939 4.22098 20.0371 -0.000317337 0.0105113 0.00665651 3
166 1 -2.8943 1.84125 20.42 0.00585245 0.000275483 -0.0103586 3
176 1 -2.15213 0.655684 20.4809 0.00798992 0.00461029 -0.00178344 3
193 1 -0.792832 3.01777 20.3399 0.00277752 0.00998624 0.00338948 3
191 1 -0.657556 0.561659 20.4825 0.00324515 0.00452355 -0.00412518 3
192 1 0.0320212 1.79008 20.2474 0.0102042 0.00701847 -0.00478572 3
218 1 1.95596 5.53579 19.4174 -0.00218012 0.00249212 0.00650477 3
235 1 3.3978 5.5628 19.2813 -0.00328655 -0.000694055 -0.00803219 3
247 1 5.52413 4.29549 19.292 -0.00594599 -0.00267696 0.00605761 3
257 1 6.20444 3.07844 19.164 0.00134368 -0.00404481 -0.0013071 3
258 1 6.22113 5.46469 19.5917 0.00450135 -0.00697971 -0.0122284 3
234 1 4.06497 4.29125 19.1554 0.00505324 -0.000240517 -0.00784934 3
256 1 6.3465 0.622269 18.9872 0.0107514 0.00111004 0.0022133 3
246 1 5.56933 1.82469 18.9879 -0.00978828 -0.000382302 0.00663173 3
233 1 3.42274 3.04766 19.3252 -0.00885036 0.00589169 0.00716145 3
231 1 3.50298 0.567564 19.2957 0.00582893 -0.00595332 -0.00200683 3
232 1 4.14855 1.80504 19.0791 0.00960244 0.00334651 0.00177922 3
207 1 1.24963 4.28681 19.5959 0.00855006 0.00950862 -0.00169258 3
217 1 2.00962 3.05637 19.5368 -0.00681628 -0.00240107 0.0124766 3
206 1 1.45232 1.76767 19.9516 -0.00191617 -0.000672166 0.000835552 3
216 1 2.12484 0.530718 19.7142 -0.00596233 0.00103665 -0.0103028 3
275 1 7.64941 5.51369 19.7406 0.0023161 -0.00226276 -0.00799088 3
273 1 7.64212 3.11884 19.3885 0.00776912 -0.00421335 0.00243279 3
271 1 7.7203 0.594938 19.2667 -0.000367583 0.00339147 -0.00295 3
272 1 8.4044 1.86949 19.4427 -0.0086374 0.00685335 0.00266147 3
274 1 8.41691 4.30889 19.5627 0.00942765 -0.00851729 -0.00731272 3
286 1 9.82205 1.84493 19.669 0.0021841 -0.00396731 -0.000116428 3
287 1 9.85304 4.28049 19.6527 -0.00162979 0.00722371 -0.00441507 3
296 1 10.5202 0.612223 19.7752 -0.0021475 -0.00479294 -0.0046032 3
297 1 10.5324 3.05973 19.7613 0.00225446 0.0063556 -0.00180572 3
298 1 10.5206 5.50832 19.8237 0.00613543 0.00399427 -0.00834962 3
99 1 -10.8272 7.95853 20.0222 0.00569555 0.0055414 0.00402903 3
116 1 -8.72566 6.73826 20.3725 -0.0068728 -0.00885243 -0.00204874 3
117 1 -9.40377 7.95672 20.2796 0.00352619 -0.00270168 -0.000975279 3
118 1 -8.68511 9.1813 20.1476 0.00604445 0.00168004 -0.00539694 3
129 1 -7.28069 9.22586 20.2693 -0.0134226 -0.00218676 -0.01518 3
128 1 -7.31163 6.72298 20.2573 0.00187136 -0.00437359 -0.006311 3
139 1 -6.60323 7.96421 20.245 -0.00219512 -0.00675258 -0.0134592 3
156 1 -4.48915 6.75386 19.9986 0.00487009 0.000108512 -0.00243316 3
157 1 -5.21797 7.9508 20.1937 -0.00157119 -0.00317703 -0.0108195 3
158 1 -4.43692 9.21587 19.9896 -0.0041184 -0.00546072 0.00299998 3
168 1 -3.05434 6.66565 19.958 -0.00636524 0.000660691 0.00788585 3
169 1 -3.03598 9.15497 19.8777 0.00106286 0.0043297 -0.00307329 3
179 1 -2.38109 7.90886 19.7064 -0.00282517 -0.00812887 0.00164345 3
196 1 -0.226624 6.61579 19.5387 0.0112391 -0.00415548 0.01104 3
197 1 -0.934134 7.88133 19.5666 0.00974991 -0.00690937 0.0127142 3
198 1 -0.248847 9.15847 19.6183 0.00282643 0.00294089 -0.00697211 3
208 1 1.16844 6.70571 19.2699 0.00614361 0.00290894 0.00430156 3
209 1 1.14634 9.12946 19.7659 0.00320584 -0.0108157 0.00341502 3
219 1 1.90627 7.92959 19.4791 -0.00297594 -0.016805 0.00823891 3
236 1 4.10649 6.795 19.3838 0.0123353 0.00346632 -0.00465723 3
237 1 3.33394 7.98149 19.6598 0.00709736 -0.00394955 0.0129014 3
238 1 4.05913 9.15711 19.9646 -0.00559954 0.00887513 0.000572927 3
248 1 5.50423 6.74525 19.6708 -0.00367257 0.00385812 0.000708007 3
249 1 5.52352 9.12614 19.9336 -0.00338517 -0.00481501 -0.0023186 3
259 1 6.25492 7.92049 19.9406 -0.000874314 -0.00130862 0.00926923 3
277 1 7.68749 7.96699 19.989 -0.000610469 0.00156965 -0.00090395 3
276 1 8.40389 6.6818 19.9671 -0.00450797 -0.00323005 -0.000707607 3
278 1 8.40676 9.14785 19.9742 -0.00135312 0.00666522 0.00440817 3
288 1 9.80369 6.72885 19.9704 0.00355642 -0.00199763 0.0032457 3
289 1 9.80461 9.18335 19.9898 0.00221557 0.00598704 -0.00865655 3
299 1 10.5397 7.95676 20.0179 0.0113812 0.00376471 -0.00178983 3
