ITEM: TIMESTEP
54800
ITEM: NUMBER OF ATOMS
168
ITEM: BOX BOUNDS pp pp pp
-1.4715758017245314e+01 1.5057610017245315e+01
-1.2710055654020760e+01 1.2664508654020761e+01
-5.0001035148846022e+01 1.0000103514884636e+02
ITEM: ATOMS id type x y z vx vy vz c_coord
92 1 -10.8223 -9.23347 20.05 -0.00713706 0.00395949 0.00103931 3
93 1 -10.8435 -6.77345 20.1428 0.00710206 -0.00047751 -0.00350665 3
103 1 -9.36905 -9.2693 20.0964 -6.17317e-05 -0.00401255 -0.00446976 3
104 1 -8.69887 -8.00637 20.2336 -0.0119675 0.00117695 -0.0044156 3
105 1 -9.3933 -6.73708 20.2685 0.00347572 0.0067234 0.000830977 3
122 1 -7.29483 -8.05039 20.2547 0.00203986 -0.00112777 -0.00483324 3
132 1 -6.60145 -9.26736 20.1557 -0.00295378 0.015139 0.00255524 3
133 1 -6.58282 -6.76653 20.1969 0.00306298 0.00562983 0.00360608 3
143 1 -5.26181 -9.30145 19.9903 -0.00919961 0.0154095 -0.00269438 3
144 1 -4.50925 -8.08364 19.8308 0.00103477 0.000522272 -0.00858606 3
145 1 -5.21031 -6.84361 19.8796 -0.00317772 0.000744932 0.00234565 3
162 1 -3.03135 -8.02556 19.7551 -0.00470281 0.00599813 -0.00139267 3
172 1 -2.31662 -9.23307 19.8169 -0.00182352 0.00056247 0.000257261 3
173 1 -2.29979 -6.80669 19.7341 -0.00226687 0.00273914 -0.00724747 3
183 1 -0.902946 -9.18882 19.8803 -0.000329574 0.00258964 0.00223338 3
184 1 -0.138528 -8.04373 19.8611 -0.000629166 -0.00149388 -0.00319878 3
185 1 -0.826889 -6.79707 19.7502 0.00271741 -0.00567798 0.00529057 3
202 1 1.27169 -8.04706 20.0023 -0.00987452 -0.0104009 0.00543079 3
212 1 1.99536 -9.24358 19.854 0.012966 -0.00425078 0.00608633 3
213 1 2.02536 -6.84104 20.1345 0.00850746 -0.00193314 0.00672797 3
223 1 3.41031 -9.21336 19.952 0.00323785 0.00866706 -0.0130518 3
224 1 4.17883 -8.00011 20.1865 -0.00646374 0.00156794 -0.00952646 3
225 1 3.40716 -6.79837 20.2333 0.00421113 -0.0104546 0.00394191 3
242 1 5.62845 -7.99183 20.2601 -0.000538598 -0.00377299 -0.00368751 3
252 1 6.2674 -9.24744 20.3195 -0.00146909 0.00347325 0.00402192 3
253 1 6.24546 -6.73998 20.4911 -0.000600465 -0.00497917 0.0138293 3
265 1 7.67504 -6.80257 20.589 0.00925907 0.0075095 0.00621455 3
263 1 7.71333 -9.25993 20.2554 0.00178543 -0.00421806 0.00318855 3
264 1 8.36095 -8.08299 20.3992 0.00957082 -0.00296273 0.0105648 3
282 1 9.79511 -8.02697 20.3245 0.0106163 -0.00232489 0.00419441 3
292 1 10.4985 -9.23194 20.1592 4.01472e-05 0.00406367 0.009803 3
293 1 10.5301 -6.75544 20.2871 -0.00655703 0.0014769 0.0125416 3
94 1 -10.8273 -4.32874 20.1798 0.00477084 -0.00276791 0.0044029 3
95 1 -10.8578 -1.85522 20.0315 -0.00161309 0.00388966 -0.00803687 3
106 1 -8.69465 -5.52978 20.2583 -0.000134971 0.00194866 0.00760918 3
107 1 -9.38622 -4.25375 20.2457 -0.00529722 0.00417954 0.00689851 3
108 1 -8.60343 -3.09049 20.159 0.000153509 0.00689184 -0.00908067 3
109 1 -9.36532 -1.86628 19.9787 -0.010317 0.00249102 -0.00444991 3
110 1 -8.63262 -0.696973 19.759 -0.000237107 -0.00307412 -0.0113374 3
125 1 -7.2018 -0.648728 19.5482 0.000551863 -0.00685672 -0.0122157 3
123 1 -7.24654 -5.50034 20.2923 -0.00885796 -0.00405236 0.00759207 3
124 1 -7.18754 -3.07191 20.0153 -0.00654962 0.00287112 -0.00411621 3
186 1 -0.0845569 -5.57162 19.7755 0.00317344 0.00652078 -0.0142723 3
134 1 -6.48244 -4.31126 19.9914 -0.00657775 -0.00734345 0.00682678 3
163 1 -2.98244 -5.55199 19.5798 -0.0024992 0.0098387 -0.00344558 3
135 1 -6.47507 -1.85638 19.6429 0.000982768 0.0142079 -0.00625338 3
146 1 -4.4167 -5.65104 19.5935 -0.0020485 0.00121811 0.00897452 3
147 1 -5.07915 -4.38183 19.6997 -0.000618909 -0.00448914 0.00650937 3
148 1 -4.37276 -3.13357 19.411 -0.00346233 -0.00328727 0.000217196 3
149 1 -5.08679 -1.89919 19.4677 0.00982397 -0.00433738 0.00114299 3
164 1 -3.01048 -3.16539 19.4265 -0.0127151 0.000365985 0.00473232 3
174 1 -2.18634 -4.36297 19.4471 -0.00709584 0.00206668 -0.00331156 3
150 1 -4.40147 -0.659946 19.2331 0.00602606 0.00454359 0.00712655 3
187 1 -0.764768 -4.31273 19.6218 0.00720776 -0.000412388 -0.00620242 3
165 1 -3.00868 -0.655851 19.2504 0.0052889 -0.00119484 0.0107654 3
175 1 -2.32628 -1.898 19.4429 0.00634009 -0.0047704 0.00839801 3
188 1 -0.0829591 -3.03412 19.7449 -0.00420087 0.00305872 3.91107e-05 3
189 1 -0.926391 -1.83311 19.617 -0.00456657 0.00373054 0.00155605 3
190 1 -0.140522 -0.635999 19.723 0.011284 -0.00181803 0.000677619 3
203 1 1.27827 -5.625 19.9652 -0.000447264 -0.00573745 -0.00437504 3
226 1 4.10213 -5.53975 20.1898 0.000152121 -0.00682487 0.000619476 3
243 1 5.52984 -5.5133 20.3685 0.00134925 0.0132167 -0.000150468 3
254 1 6.2581 -4.31011 20.3218 0.00218009 0.00259203 0.00523046 3
255 1 6.30685 -1.83086 20.3143 0.00278955 -0.00715579 0.00334202 3
227 1 3.41648 -4.24642 20.0763 0.00450513 -0.00598174 -0.0058647 3
244 1 5.58536 -3.05886 20.1938 0.000372167 -0.00184227 0.00741277 3
214 1 1.98175 -4.32295 19.9902 -0.0082706 -0.0136671 -0.00906757 3
228 1 4.15477 -3.02658 20.081 0.0014571 0.0102952 0.00737945 3
245 1 5.59344 -0.608921 20.3451 0.00588096 -0.0039086 -0.000774584 3
229 1 3.39856 -1.79164 20.2468 0.0059675 -0.0067931 0.00569365 3
230 1 4.13939 -0.615105 20.1622 0.00415188 -0.00626898 0.016692 3
204 1 1.27312 -3.02184 19.9363 -0.00444913 0.00283448 -0.00543152 3
215 1 1.99619 -1.85875 20.1957 0.00193351 -0.00577822 0.000433724 3
205 1 1.24231 -0.635501 20.1218 -0.0036417 0.00802784 0.00391255 3
267 1 7.66989 -4.30642 20.3816 -0.00158189 0.0136572 0.00827636 3
269 1 7.76392 -1.82055 20.2235 0.0102003 -0.00359699 -0.00271877 3
266 1 8.39111 -5.55859 20.4755 0.00224078 0.00381549 0.0102765 3
268 1 8.38645 -3.04437 20.2734 -0.0023453 0.00391897 0.00850693 3
270 1 8.47954 -0.641495 20.3256 0.00811624 0.00294673 0.00167092 3
283 1 9.8156 -5.50091 20.3043 0.000480081 -0.00330912 0.00961358 3
284 1 9.78753 -3.0683 20.1093 0.00856224 -0.00377851 0.00586481 3
285 1 9.915 -0.59903 20.1828 0.0106954 -0.00574938 0.0012538 3
294 1 10.5356 -4.27802 20.1656 0.000360963 0.00553122 0.00616445 3
295 1 10.5198 -1.87833 19.9911 0.000978024 0.00512081 0.0119195 3
96 1 -10.8335 0.602295 19.8729 -0.00530855 -0.00587729 -0.00205994 3
97 1 -10.8209 3.02946 20.1039 0.0011877 0.000810687 0.00549718 3
98 1 -10.839 5.48334 20.0697 -0.00205483 -0.00490479 -0.00264595 3
111 1 -9.35309 0.553776 19.8157 -0.000225292 -0.0108913 -0.00920167 3
112 1 -8.62848 1.75928 19.8423 0.00954069 0.00596055 -0.0115542 3
113 1 -9.33697 3.00213 20.1581 0.00411119 -0.00456742 -0.0026712 3
114 1 -8.65965 4.19257 20.3975 0.00128422 -0.00427133 0.00504765 3
115 1 -9.37786 5.45428 20.3359 -0.00451305 0.00330378 0.00784645 3
127 1 -7.18669 4.2952 20.1319 -0.000699687 -0.00801523 0.00512176 3
126 1 -7.23886 1.85663 19.616 0.00919803 -0.00350137 -0.00662365 3
138 1 -6.50078 5.52788 20.1339 0.000901002 0.00283265 0.00875905 3
195 1 -0.827859 5.53425 19.6514 0.000455355 -0.00712176 -0.023689 3
155 1 -5.12154 5.62242 19.7094 -0.00378692 0.00187418 0.0136045 3
178 1 -2.28664 5.60333 19.6317 0.0101196 0.00506784 -0.0120396 3
137 1 -6.52545 3.06308 19.9048 0.0063289 -0.0087367 -0.00121357 3
153 1 -5.10575 3.14187 19.7169 0.00127474 -0.00311852 0.00160882 3
154 1 -4.32966 4.38468 19.6657 -0.00582462 -0.00527744 0.00347896 3
136 1 -6.56989 0.632746 19.3804 0.00327643 0.00141231 -0.00884306 3
151 1 -5.1258 0.634107 19.268 0.0109594 0.00183426 -0.00379634 3
167 1 -2.94463 4.35791 19.4264 -0.00396676 0.00253536 -0.00526748 3
152 1 -4.46565 1.89711 19.4049 0.00851118 -0.0038997 0.00774354 3
177 1 -2.27223 3.07609 19.455 0.014782 -0.00856766 0.000170038 3
194 1 -0.0767072 4.28835 19.6312 0.002009 -0.00560604 -0.000855807 3
166 1 -2.99866 1.8344 19.4327 0.00454427 -0.00574511 -0.000470575 3
176 1 -2.3138 0.593925 19.4332 -0.000514164 0.00299441 0.011652 3
193 1 -0.85017 3.07172 19.471 -0.00782263 0.00393209 -0.00489167 3
191 1 -0.870846 0.616043 19.6623 0.00412528 0.000451183 -0.00275266 3
192 1 -0.178731 1.85697 19.7884 -0.00258232 0.0116197 0.0101332 3
218 1 1.99547 5.56341 19.9217 -0.000904155 3.43655e-05 0.0043437 3
235 1 3.36379 5.43206 20.3322 -0.00648147 0.00741465 -0.00188403 3
247 1 5.61086 4.22576 20.4936 -0.00605079 0.0108341 0.00841809 3
257 1 6.30611 3.03149 20.2654 -0.00282502 0.00610696 0.00179677 3
258 1 6.23798 5.52428 20.6267 0.00784134 0.000161384 0.00174294 3
234 1 4.18108 4.2989 20.361 -0.000732032 0.00227197 -0.00754168 3
256 1 6.30458 0.583796 20.164 0.00655127 0.000423008 0.0164848 3
246 1 5.63026 1.80776 20.2478 -0.0113797 0.00252113 0.00345082 3
233 1 3.48042 3.0924 20.1724 -0.00534566 -0.00377925 -0.00497197 3
231 1 3.46693 0.622212 20.2181 0.0101551 -0.00750393 0.00872205 3
232 1 4.17079 1.86975 20.1783 0.00687309 0.00604143 0.00673497 3
207 1 1.28624 4.32187 19.828 0.0116409 0.00113688 -0.00272334 3
217 1 1.99643 3.08244 20.0336 0.00205796 0.00127675 -0.00363746 3
206 1 1.27092 1.86446 20.0673 0.0012501 0.000685813 -0.00579519 3
216 1 2.01456 0.610477 20.143 0.00197265 -0.00491967 0.00639979 3
271 1 7.77425 0.56591 20.2459 -0.00273011 0.00501678 0.000165503 3
275 1 7.67141 5.52526 20.6665 0.00565163 0.0118932 0.0173328 3
273 1 7.70089 3.05157 20.4883 0.00546678 -0.00311783 0.00946412 3
272 1 8.43883 1.82089 20.3958 -0.00160977 0.00328665 -0.00522507 3
274 1 8.35922 4.27768 20.5113 0.000317416 0.00834404 0.0174306 3
286 1 9.82442 1.83697 20.2813 0.00925111 0.00310938 0.000100944 3
287 1 9.7899 4.27456 20.2594 0.00355632 -0.00669371 0.0162903 3
296 1 10.5436 0.636768 20.112 -0.00798478 0.002615 0.00610539 3
297 1 10.4844 3.06712 20.175 -0.000965758 -0.00353435 0.00704394 3
298 1 10.5225 5.48462 20.2317 -0.000909581 -0.00181073 0.00683564 3
99 1 -10.8357 7.97508 19.9877 -0.0115741 -0.00693537 -0.00527034 3
116 1 -8.69715 6.66977 20.2857 -0.00760478 -0.0093861 0.000735433 3
117 1 -9.33516 7.93036 20.0933 0.000471857 -0.00762481 -0.00394501 3
118 1 -8.66199 9.17334 19.9896 0.00282395 0.00953886 0.00361873 3
129 1 -7.23107 9.09643 20.0586 -0.00575402 -0.00708449 -0.00830283 3
128 1 -7.26063 6.72061 20.3466 0.00429178 -0.00199411 0.000888548 3
139 1 -6.52855 7.89742 20.2168 0.0104391 0.000192549 -0.00970186 3
156 1 -4.4254 6.82825 19.6954 -0.00499894 -0.00633722 -0.00269914 3
157 1 -5.10511 7.99609 20.1476 0.000332203 -0.0102931 0.00465062 3
158 1 -4.42456 9.18679 19.9738 0.000947677 -0.0025765 -0.00224022 3
168 1 -3.00775 6.76873 19.7384 -0.0143335 -0.000666899 -0.0101483 3
169 1 -3.05499 9.21145 20.1144 0.00595146 -0.00397484 0.00197583 3
179 1 -2.32364 8.01644 19.8549 0.000599468 0.00415911 -0.00925674 3
196 1 -0.126159 6.74688 19.8229 0.00212492 0.00267207 -0.0110539 3
197 1 -0.894131 7.9598 19.7705 -0.00451651 0.00466376 -0.00226812 3
198 1 -0.14357 9.20653 19.8749 -0.00583646 -0.0077931 0.0024787 3
208 1 1.27129 6.76448 19.9761 0.00764435 0.000984933 0.00136897 3
209 1 1.24177 9.22476 19.8658 0.0023649 0.000850589 0.00332943 3
219 1 1.98259 7.99792 20 0.00308646 -0.00207067 0.00044745 3
236 1 4.05029 6.6931 20.4111 0.0144096 0.00045887 0.00575105 3
237 1 3.42392 7.93997 20.0411 0.0014441 0.000311632 -0.00143312 3
238 1 4.15727 9.1501 20.0429 0.00468095 -0.00501799 0.000519627 3
248 1 5.4627 6.6965 20.4652 -0.00823617 0.00142048 -0.000967447 3
249 1 5.55269 9.13741 20.1739 0.0029743 0.000775965 0.00378019 3
259 1 6.22524 7.9172 20.3549 0.00451254 0.00471097 -0.0026826 3
277 1 7.67152 7.96951 20.4821 -0.00352026 -0.00256736 0.00607006 3
276 1 8.42469 6.72901 20.6021 0.00382839 0.00489123 0.0169294 3
278 1 8.34631 9.18864 20.2012 0.0092694 -0.00715406 0.000997196 3
288 1 9.78401 6.70957 20.3934 0.0132758 -0.000960809 0.00267941 3
289 1 9.77514 9.16678 20.1237 0.0108903 -0.0013367 0.000472825 3
299 1 10.4905 7.94543 20.2404 0.00893457 0.00238672 0.00787529 3
