ITEM: TIMESTEP
49800
ITEM: NUMBER OF ATOMS
168
ITEM: BOX BOUNDS pp pp pp
-1.4715758017245314e+01 1.5057610017245315e+01
-1.2710055654020760e+01 1.2664508654020761e+01
-5.0001035148846022e+01 1.0000103514884636e+02
ITEM: ATOMS id type x y z vx vy vz c_coord
92 1 -10.822 -9.22185 20.1555 0.0081619 -0.000469695 -0.00479559 3
93 1 -10.8121 -6.76603 19.9252 -0.00558393 0.00833057 0.00988109 3
103 1 -9.41494 -9.24149 20.2362 0.00501268 0.00133362 -0.00067708 3
104 1 -8.67308 -8.01541 20.3101 0.00221234 -0.00175828 0.00555297 3
105 1 -9.36103 -6.77496 20.0993 -0.00636145 0.00495446 0.000351222 3
122 1 -7.21989 -8.0485 20.3302 -1.20794e-05 -0.00261848 0.00689261 3
132 1 -6.54872 -9.27848 20.3517 -0.00749354 0.00323144 0.00184414 3
133 1 -6.44536 -6.8242 20.1667 -0.00316391 -0.000151519 -0.000397659 3
143 1 -5.07453 -9.26902 20.2846 -0.0154274 -0.00269943 0.00650533 3
144 1 -4.40381 -8.00705 20.0171 -0.00856257 0.00138964 0.0040578 3
145 1 -5.04739 -6.77498 20.0798 -0.000530032 -0.00188515 -0.00847866 3
162 1 -3.02914 -8.04515 19.875 0.00296484 0.00533157 -0.00228649 3
172 1 -2.32407 -9.30747 19.6577 -0.00899638 -0.00768902 0.00461452 3
173 1 -2.32463 -6.81553 19.6675 -0.000315887 0.00189755 -0.00122215 3
183 1 -0.879282 -9.26619 19.6426 -0.00299448 0.00558359 -0.00764386 3
184 1 -0.154965 -8.05269 19.3957 -0.00615909 0.00480924 -0.00794302 3
185 1 -0.900793 -6.77956 19.4885 0.0134352 0.0113783 0.000311142 3
202 1 1.27842 -8.03878 19.4969 -0.00715474 0.00390217 -0.00540378 3
212 1 1.95102 -9.24657 19.754 -0.00565934 -0.0014584 -0.00179922 3
213 1 1.93484 -6.739 19.3769 -0.00647232 0.00304913 -0.0129809 3
223 1 3.36258 -9.26219 19.8227 -0.00152009 -0.00345293 -0.00447107 3
224 1 4.03105 -7.97631 19.6557 -0.00642501 0.0073783 -0.00294367 3
225 1 3.34375 -6.73728 19.5099 -0.00295948 0.0107118 0.00203504 3
242 1 5.45369 -7.96661 19.7055 -0.00165034 0.00574693 0.00845951 3
252 1 6.18338 -9.22246 19.9342 -0.00746186 -0.00022665 -0.000220175 3
253 1 6.14664 -6.74187 19.7217 -0.0071362 -0.000967725 0.00377435 3
265 1 7.58939 -6.76021 19.8877 -0.0088095 0.0027643 0.00484764 3
263 1 7.59769 -9.24073 19.9464 -0.00517089 0.00371006 -0.0019583 3
264 1 8.31372 -8.02401 19.9038 0.00431718 0.00133036 0.00433174 3
282 1 9.77105 -7.98749 19.9954 0.00499659 0.00997793 0.00352578 3
292 1 10.4861 -9.21991 20.0059 0.000248691 0.00401142 0.00169179 3
293 1 10.4663 -6.74053 20.1154 -0.00564125 0.00932031 -0.00624502 3
94 1 -10.8439 -4.31772 20.0169 -0.000146553 -0.00241731 -0.00117771 3
95 1 -10.8322 -1.86904 20.0849 0.00973016 -0.00444506 0.00697564 3
106 1 -8.58202 -5.53837 20.1549 -0.00108501 0.00532389 -0.00778908 3
107 1 -9.38185 -4.31168 20.1176 -0.00215438 0.0045214 -0.00887341 3
108 1 -8.67697 -3.0837 20.1706 0.00390715 -0.00235651 -0.00877837 3
109 1 -9.39907 -1.85562 20.2279 0.00181667 0.00116987 -0.0034703 3
110 1 -8.72271 -0.584049 20.2496 0.00269518 0.00461806 -0.000335814 3
123 1 -7.14125 -5.56217 20.1976 -0.00139433 0.00989997 -0.00779289 3
124 1 -7.22225 -3.09288 20.1257 0.00211569 -0.00400046 -0.0183702 3
125 1 -7.30247 -0.560924 20.0367 0.00694534 0.0036451 0.000124371 3
186 1 -0.205209 -5.53683 19.5338 0.0010763 0.00518992 0.00320266 3
134 1 -6.50766 -4.28786 20.1423 0.0064444 0.00225916 -0.0116594 3
163 1 -3.00819 -5.54103 19.8548 0.0051188 -0.00348353 -0.00488579 3
135 1 -6.60701 -1.81162 19.9507 0.00619813 -0.0034904 -0.00594721 3
146 1 -4.40613 -5.52653 20.153 -0.00391493 -0.00562218 -0.0108258 3
147 1 -5.09727 -4.31242 20.0479 -0.0168239 0.00494718 0.00220696 3
148 1 -4.38158 -3.07198 20.0635 0.00364448 0.0108937 -0.000320372 3
149 1 -5.17856 -1.82545 20.0275 0.00603294 0.00439325 -0.013441 3
164 1 -2.9798 -3.07992 20.0178 0.000813152 -0.00489911 -0.00182025 3
174 1 -2.23854 -4.30993 19.9228 0.00247525 -0.00116703 0.0110202 3
150 1 -4.42038 -0.638239 20.2657 -0.00375811 0.00862246 0.000282313 3
187 1 -0.837349 -4.32516 19.9409 0.00187976 0.00625503 0.0130549 3
165 1 -2.98925 -0.665926 20.3907 -0.00588316 -0.00584091 0.00144446 3
175 1 -2.29864 -1.86187 20.241 0.004036 0.00572649 0.00747752 3
188 1 -0.143059 -3.05827 19.8618 0.0103572 -0.00112195 0.00538034 3
189 1 -0.8139 -1.87187 20.1492 0.0090777 0.002987 0.0159372 3
190 1 -0.0888996 -0.63833 20.2477 0.00931119 -0.0193815 0.00748213 3
203 1 1.22926 -5.51071 19.4188 0.00751068 -0.00187126 0.00546321 3
226 1 4.05849 -5.49979 19.3195 -0.0112394 -0.00599872 -0.00358 3
243 1 5.46319 -5.55221 19.4096 -0.00233343 0.00488458 -0.00151705 3
254 1 6.17636 -4.31554 19.4438 -0.0064892 -0.0157147 -0.00587007 3
255 1 6.18007 -1.86805 18.9426 0.00877089 0.000341156 -0.00240485 3
227 1 3.32402 -4.28614 19.2489 0.00523215 0.0047022 0.00192184 3
244 1 5.46808 -3.11692 19.1364 0.0145326 -0.00771292 -0.00770898 3
214 1 1.93966 -4.2163 19.4743 0.0117082 0.0052033 0.000651009 3
228 1 4.0333 -3.06593 19.1753 0.0114739 -0.005047 -0.00369921 3
245 1 5.47687 -0.609389 18.8266 0.00081354 -0.000921697 -0.0129921 3
229 1 3.35336 -1.82851 19.2277 0.001445 -0.000535275 -0.008368 3
230 1 4.07003 -0.602997 19.0635 0.00352509 0.000783663 -0.00484065 3
204 1 1.28307 -2.98396 19.7448 -0.00108603 0.0126035 -0.00513607 3
215 1 2.04599 -1.81838 19.6449 -0.0029649 0.00655126 -0.00939783 3
205 1 1.31779 -0.610506 19.9039 0.00222037 -0.00274263 0.00671678 3
269 1 7.59217 -1.84078 19.1005 -0.00885295 -0.000801648 0.00293001 3
267 1 7.60115 -4.26572 19.5956 -0.00404038 -0.00336868 -0.00622388 3
266 1 8.3233 -5.52634 19.9166 0.00484991 -0.00661638 0.00706523 3
268 1 8.27377 -3.06257 19.5143 0.0041548 0.000684756 0.00397061 3
270 1 8.37675 -0.655033 19.3331 -0.00523406 0.000626981 -0.00202446 3
283 1 9.71859 -5.48523 20.0523 -0.000908453 -0.000698503 0.00642622 3
284 1 9.73591 -3.12094 19.7118 -0.0108808 0.0042765 0.00064043 3
285 1 9.77684 -0.64428 19.6961 0.00860394 0.00724058 0.00551304 3
294 1 10.4735 -4.2979 19.9926 0.00492068 0.00545639 0.00176772 3
295 1 10.4858 -1.90578 19.6967 0.000254448 0.00473891 9.95399e-05 3
96 1 -10.8882 0.602392 20.0583 0.00934434 -0.00767502 0.00674393 3
97 1 -10.8667 3.04121 20.1175 0.000628402 -0.00467228 -0.0135858 3
98 1 -10.8377 5.47288 20.0114 0.0050879 -0.000594752 -0.0120364 3
111 1 -9.42464 0.61033 20.2035 0.00756584 -0.00113405 0.00374472 3
112 1 -8.73179 1.86131 20.2275 0.00389859 -0.00288906 -0.00721117 3
113 1 -9.41882 3.08789 20.202 0.00174603 -0.00826595 -0.00568243 3
114 1 -8.63981 4.3081 20.1965 -0.00439617 -0.00278988 -0.0100017 3
115 1 -9.38189 5.53188 20.1656 0.00176373 0.00407963 0.0113373 3
126 1 -7.2983 1.90085 20.1247 0.00913458 0.00397208 0.00199664 3
127 1 -7.22367 4.36916 20.2734 0.00500417 0.00471701 -0.0129163 3
138 1 -6.47607 5.5658 20.3647 -0.00960708 -0.00211626 -0.00925476 3
195 1 -0.857045 5.55721 19.532 0.00539251 0.00453879 0.00830841 3
155 1 -5.01819 5.54208 20.2452 -0.0118836 -0.00561785 -0.0106044 3
178 1 -2.20742 5.51976 19.807 -4.14761e-05 -0.00171042 0.0208492 3
137 1 -6.48653 3.17789 20.12 0.00237202 0.00169573 -0.00883992 3
153 1 -5.09371 3.09691 20.1908 0.0103074 -0.00125362 -0.000529314 3
154 1 -4.31346 4.30392 20.0701 0.00221288 0.00053818 -0.00547201 3
136 1 -6.54231 0.705844 19.9699 0.00235359 0.00435366 -0.0102249 3
151 1 -5.10109 0.614528 20.128 -0.00202629 -0.00549196 -0.0103047 3
167 1 -2.91417 4.27925 19.9117 0.00166126 -0.001276 0.00756265 3
152 1 -4.36617 1.85496 20.2459 0.00301905 0.00509278 -0.00365822 3
177 1 -2.2369 3.01012 20.1511 -0.000579175 -0.00127321 0.005614 3
194 1 -0.163828 4.28624 19.6497 -0.00321806 -0.0065379 0.0127423 3
166 1 -2.90966 1.78392 20.3482 0.0049091 -0.00505502 0.0125698 3
176 1 -2.22555 0.511258 20.5941 0.00595772 -0.0017409 0.00387559 3
193 1 -0.784451 3.04757 20.0108 0.00535602 -0.0075652 0.0106113 3
191 1 -0.797589 0.547477 20.4817 -0.00254198 -0.00688567 0.00656743 3
192 1 -0.0830783 1.81104 20.2131 -0.00541397 0.00198725 0.0119109 3
218 1 1.95735 5.45376 19.3688 -0.0045829 0.00256498 -0.0111106 3
235 1 3.3568 5.49036 19.4581 0.00225314 0.000881408 -0.000700321 3
247 1 5.48293 4.27629 19.4346 -0.0063009 0.00298459 -0.0120367 3
257 1 6.23489 3.08449 19.1661 0.00519266 -0.00399453 -0.00371111 3
258 1 6.16862 5.53044 19.6141 0.000771848 0.00305313 0.00629232 3
234 1 4.07956 4.24368 19.3338 0.0121561 -0.000954705 0.00263619 3
256 1 6.23413 0.600261 18.8934 -0.00476565 0.0122986 0.00451394 3
246 1 5.53385 1.86202 19.0339 -0.00132629 -0.00878806 -0.00408152 3
233 1 3.33092 3.05052 19.226 0.019034 -0.00165306 -0.0129927 3
231 1 3.4104 0.620675 19.2756 0.00206478 -0.00123357 -0.00520288 3
232 1 4.07966 1.88868 19.1096 0.0118331 0.00162938 -0.00136524 3
207 1 1.24075 4.23059 19.481 -0.0038704 -0.00515591 0.00977532 3
217 1 1.98125 2.97632 19.5392 0.00953323 -0.0126333 -0.00250762 3
206 1 1.28883 1.78798 19.8933 -0.00213981 -0.0123478 -0.00300532 3
216 1 2.10401 0.609322 19.7987 0.0123865 -0.00223803 0.0141787 3
275 1 7.58129 5.50779 19.8407 0.00402612 0.00337993 0.00615096 3
273 1 7.64545 3.02934 19.3831 0.00211278 -0.00751668 -0.00551102 3
271 1 7.6101 0.59381 19.1121 -0.00218415 0.010158 0.00712134 3
272 1 8.35643 1.80572 19.3759 -0.00503122 -0.00722167 -0.00236367 3
274 1 8.35401 4.24778 19.7934 -0.00838164 0.000717558 -0.00478873 3
286 1 9.75801 1.80431 19.6647 -0.00597484 -0.00487018 -0.00222277 3
287 1 9.74785 4.30344 19.9984 -8.82932e-05 -0.001645 -0.00828142 3
296 1 10.5026 0.614662 19.7925 0.00318218 0.000665737 0.00140017 3
297 1 10.5092 3.01911 19.8906 0.00236474 0.00120923 -0.00582203 3
298 1 10.4867 5.56204 20.0307 -0.00244769 -0.000372259 -0.000145098 3
99 1 -10.8029 7.95978 20.1057 -0.00622142 -0.00285304 -0.0034807 3
116 1 -8.64194 6.71056 20.1863 0.0091221 -0.00599003 0.00215995 3
117 1 -9.29429 7.94486 20.1928 0.0030147 0.000701578 0.000569723 3
118 1 -8.64144 9.21255 20.3463 0.00393982 0.0065333 0.00730889 3
129 1 -7.23556 9.1941 20.3462 0.00324463 0.00273211 0.00352481 3
128 1 -7.19409 6.77228 20.4387 -0.00611482 -0.0024579 -0.0076255 3
139 1 -6.49074 7.99298 20.4954 -0.00682927 0.00532789 0.00919493 3
156 1 -4.3018 6.76779 20.1091 0.000584086 -0.00362533 -0.000360228 3
157 1 -5.12208 7.95389 20.23 0.00311361 0.00531593 -0.00200292 3
158 1 -4.43427 9.19877 20.1186 -0.00298609 0.0044532 -0.00444816 3
168 1 -2.94277 6.76878 19.8552 -0.00469906 0.00300614 -0.00902708 3
169 1 -3.01249 9.19371 19.9342 -0.00227422 0.00460771 0.000473529 3
179 1 -2.305 8.01812 19.7156 -0.00092724 0.007613 -0.000622496 3
196 1 -0.17218 6.80408 19.3931 -0.00864831 -0.00328637 -0.00634637 3
197 1 -0.823984 8.01146 19.5854 -0.00816318 0.00131643 -0.0124779 3
198 1 -0.14707 9.24498 19.754 -0.0065388 -0.00603821 0.00756604 3
208 1 1.19903 6.77049 19.3713 -0.0139709 -0.00175446 0.00396169 3
209 1 1.27545 9.23148 19.6293 -0.00707435 -0.000833373 -0.00569785 3
219 1 1.95112 7.96097 19.3909 0.00204482 0.0105775 -0.00531013 3
236 1 4.01405 6.72048 19.595 -0.0146026 -0.00317665 0.000914813 3
237 1 3.36538 7.99206 19.4746 0.0031481 0.00384405 -0.00451364 3
238 1 4.04509 9.21662 19.6465 0.000516523 -0.00581017 0.00694628 3
248 1 5.44442 6.78804 19.6907 -0.000220402 0.00948566 -0.00171122 3
249 1 5.46901 9.23354 19.8475 -0.00420237 -0.000668955 0.012783 3
259 1 6.1279 7.98845 19.7712 -0.000619738 0.00128193 -0.00512286 3
277 1 7.54679 7.98835 19.8533 -0.00282548 -0.0079619 0.00428451 3
276 1 8.29925 6.76286 19.9007 0.0110571 -0.000430933 0.00239643 3
278 1 8.35286 9.16133 20.0701 0.00881347 0.00539847 -0.00124148 3
288 1 9.74713 6.77359 20.0187 -0.00281846 -0.000795701 -0.00782828 3
289 1 9.78071 9.22189 20.0429 0.00155118 -0.000678129 0.00518588 3
299 1 10.5024 7.95955 20.0169 -0.0109927 -0.00198801 0.00188156 3
