ITEM: TIMESTEP
13100
ITEM: NUMBER OF ATOMS
168
ITEM: BOX BOUNDS pp pp pp
-1.4715758017245314e+01 1.5057610017245315e+01
-1.2710055654020760e+01 1.2664508654020761e+01
-5.0001035148846022e+01 1.0000103514884636e+02
ITEM: ATOMS id type x y z vx vy vz c_coord
92 1 -10.8487 -9.19887 19.9735 0.000942626 0.00127133 0.000743103 3
93 1 -10.7979 -6.77538 20.2024 -0.000822366 -0.00491666 -0.00741262 3
103 1 -9.43269 -9.20897 20.1095 -0.00598482 -0.00220037 -0.00104389 3
104 1 -8.70911 -8.06768 20.4888 0.0138492 0.000384902 -0.00248819 3
105 1 -9.39406 -6.85632 20.5745 0.00536313 0.00662987 -0.0001504 3
122 1 -7.27292 -8.07326 20.7856 0.00711708 0.00690481 -0.0069156 3
132 1 -6.55397 -9.23758 20.5003 0.0102571 0.006726 -0.00320009 3
133 1 -6.47007 -6.91532 21.3599 0.0143786 -0.000970631 -0.0160349 3
143 1 -5.11722 -9.2485 20.6065 -0.00177735 0.00104568 -0.000311344 3
144 1 -4.3836 -8.13782 21.1622 -0.00470338 -0.00403729 -0.00677523 3
145 1 -5.05334 -6.80762 21.5913 0.00504534 0.00277218 -0.0121004 3
162 1 -2.9357 -8.11264 21.0658 0.00727491 -0.000510232 -0.00124017 3
172 1 -2.26157 -9.25802 20.5086 0.000672162 0.00816582 0.0108994 3
173 1 -2.22824 -6.79372 21.421 -0.00219214 -0.00159678 -0.00716632 3
183 1 -0.859599 -9.18391 20.4944 -0.0051354 0.00703036 0.00339035 3
184 1 -0.119043 -7.98747 20.7911 0.0149544 0.00724053 -0.00432321 3
185 1 -0.809106 -6.7259 21.1892 0.00446468 0.00298702 -0.0130999 3
202 1 1.38715 -7.94156 20.7718 0.00548845 0.00213305 -0.0060882 3
212 1 1.96556 -9.19536 20.3167 0.00515885 0.00257845 5.18021e-05 3
213 1 2.04737 -6.78584 21.293 -0.000345585 -0.00212304 0.00127113 3
223 1 3.41497 -9.20559 20.431 0.00355172 0.00770632 0.00559681 3
224 1 4.12994 -8.05696 21.0025 0.000157901 -0.00232518 -0.00172407 3
225 1 3.46016 -6.84089 21.5287 0.00392732 0.00969185 0.00431117 3
242 1 5.56432 -8.02332 20.8213 -0.00155322 0.00646121 -0.00370388 3
252 1 6.21919 -9.18974 20.3124 -0.0012491 0.00765924 0.000102156 3
253 1 6.31595 -6.77272 21.1495 -0.0134984 0.00796141 -0.0143508 3
265 1 7.68835 -6.78382 20.7561 -0.00892603 0.00329771 -0.0026826 3
263 1 7.62051 -9.20443 20.1871 -0.00394112 0.0082665 -0.00628995 3
264 1 8.3388 -7.98775 20.2748 -0.00686668 -0.000735014 -0.00846916 3
282 1 9.68768 -8.08091 19.9888 -0.00380473 -0.00130294 -0.00894346 3
292 1 10.4953 -9.2727 20.0018 0.0022928 0.0193021 -0.00393673 3
293 1 10.4149 -6.84079 19.9496 -0.000548376 0.00185482 -0.00664607 3
94 1 -10.8294 -4.34352 20.3725 -0.00173413 0.00160236 -0.00769807 3
95 1 -10.8415 -1.90643 20.3231 -0.00665898 0.00755892 -0.000761309 3
106 1 -8.70521 -5.68915 21.0629 0.0121216 -0.00401973 -0.0111237 3
107 1 -9.46645 -4.43535 20.9714 0.0068584 -0.00878043 -0.0187857 3
108 1 -8.75183 -3.19936 21.1965 0.00897577 0.00998441 -0.0117527 3
109 1 -9.42155 -1.92525 20.9164 0.00458553 0.0105476 0.000983329 3
110 1 -8.66165 -0.658786 21.1405 0.000432921 0.00343966 0.0101751 3
123 1 -7.26968 -5.75997 21.4755 0.00293316 -0.000890312 -0.014164 3
125 1 -7.33578 -0.720059 21.7819 0.000297459 0.00329199 0.00244974 3
124 1 -7.38846 -3.31142 21.8117 0.00215237 0.000847492 -0.0174607 3
186 1 -0.138563 -5.45236 21.5731 -0.00410601 -0.00384291 -0.0027253 3
134 1 -6.57898 -4.50578 21.872 0.00666804 0.00401613 -0.00979217 3
163 1 -2.83742 -5.55348 21.8634 -0.00144824 0.00658887 -0.0142286 3
203 1 1.3014 -5.53702 21.5898 -0.00398202 -0.00581652 0.00318079 3
226 1 4.26639 -5.61421 21.8764 0.0102042 0.00303687 -0.00713013 3
243 1 5.74009 -5.57144 21.6295 0.00595608 0.00303892 -0.0120507 3
254 1 6.4587 -4.35747 21.6998 -0.002388 0.00688616 -0.0146838 3
255 1 6.48085 -1.90262 21.8879 -0.0046898 -0.00331488 0.00828598 3
269 1 7.83533 -1.88867 21.3837 -0.00601954 0.0141087 0.00684884 3
267 1 7.83312 -4.3885 21.3032 -0.00438552 0.00332537 -0.0146354 3
266 1 8.42271 -5.59449 20.8899 -0.0182954 -0.000475888 -0.00177745 3
268 1 8.50633 -3.1635 21.1762 -0.00395565 0.00748234 -0.00756988 3
270 1 8.46402 -0.63486 21.1196 -0.00115678 0.000300944 0.0100222 3
283 1 9.75473 -5.62413 20.3159 -0.0128859 -0.00109278 -0.0079633 3
284 1 9.85733 -3.11642 20.6443 -0.000398664 0.00348707 0.0024453 3
285 1 9.80837 -0.593488 20.5486 0.00721603 -0.00360202 0.0104659 3
294 1 10.459 -4.34562 20.3045 -0.00365579 0.00448786 -0.00682836 3
295 1 10.4844 -1.8568 20.3803 0.010964 -0.0031525 0.00181433 3
96 1 -10.7805 0.579827 20.3192 0.00386351 0.00340484 0.00379394 3
97 1 -10.8313 3.08924 20.3353 -0.00298211 -0.00757748 -0.00489725 3
98 1 -10.8406 5.50877 20.2936 0.00639371 0.0044078 -0.000499049 3
111 1 -9.42252 0.600947 20.8694 -0.0078947 0.00119586 0.00101864 3
112 1 -8.72294 1.85944 21.1536 -0.00286231 0.00199638 -0.0011702 3
113 1 -9.43401 3.13624 20.9045 0.00322264 -0.00587224 -0.0153451 3
114 1 -8.69037 4.34191 21.2266 0.00940808 -0.00525444 -0.0170046 3
115 1 -9.40763 5.52424 20.8217 -0.0039084 -0.000714159 -0.0134855 3
127 1 -7.2685 4.46562 21.7753 0.0167187 -0.00890731 -0.0148577 3
126 1 -7.3606 1.93696 21.803 0.00731178 -0.00845468 -0.00491371 3
138 1 -6.47433 5.67198 21.7266 0.0054385 0.00112044 -0.01425 3
195 1 -0.720705 5.44589 21.631 0.00391303 -0.00651559 -0.00787153 3
155 1 -4.9763 5.66211 21.8698 0.0063845 -0.00330878 -0.0156864 3
178 1 -2.12371 5.55371 21.8673 0.00478501 -0.00426569 -0.00791369 3
218 1 2.04013 5.54135 21.7292 0.000896428 -0.000850803 0.00352247 3
235 1 3.47153 5.60452 21.9162 0.0105937 -0.00930499 0.000525449 3
247 1 5.73784 4.33016 21.9187 -0.00390981 -0.0112215 -0.00513572 3
256 1 6.46126 0.598891 21.944 0.00977231 -0.00825743 0.00846437 3
257 1 6.49444 3.06031 21.8912 -0.00946373 0.00127463 -0.00111889 3
258 1 6.39669 5.56784 21.4705 0.00508944 -0.00494807 -0.0109796 3
271 1 7.79469 0.56425 21.4503 0.0108607 0.000989524 0.00626528 3
273 1 7.83449 3.06906 21.4204 -0.00928143 -0.00503219 -0.00405946 3
275 1 7.75062 5.55664 21.0204 2.88887e-05 -0.0110263 -0.0155198 3
272 1 8.44884 1.79299 21.1922 -0.00499685 -0.000148245 0.000591368 3
274 1 8.4973 4.29902 21.0142 -0.000588889 -0.0030241 -0.0162152 3
286 1 9.78039 1.87356 20.6083 0.000471032 -0.00917832 0.00446698 3
287 1 9.82693 4.37781 20.5601 -0.00376041 -0.00524442 -0.00268296 3
296 1 10.5107 0.654425 20.3763 -0.00177118 0.000676643 0.0103159 3
297 1 10.5257 3.09619 20.3987 0.000264217 0.00133296 -0.00027535 3
298 1 10.5071 5.62076 20.2086 -0.00181069 -0.00915012 -0.00322576 3
99 1 -10.787 7.99043 20.1072 0.00675194 -0.00225737 0.00528352 3
116 1 -8.63647 6.74278 20.8527 -0.00410583 -0.00759532 -0.00284757 3
117 1 -9.31656 7.94339 20.403 -0.00197205 0.000860039 0.00292467 3
118 1 -8.67249 9.2117 20.2024 -0.00183413 -0.00901618 0.00238385 3
129 1 -7.23016 9.16832 20.3691 -0.00522444 -0.00919732 0.00241051 3
128 1 -7.20381 6.78829 21.2643 0.00892133 -0.00140891 -0.00837563 3
139 1 -6.53948 8.00604 20.9152 0.00180164 -0.00430462 -0.01 3
156 1 -4.26076 6.86761 21.5587 0.00610835 -0.00749748 -0.00893392 3
157 1 -5.07938 8.07184 21.1205 0.00761446 -0.0114556 0.00184052 3
158 1 -4.42902 9.23911 20.6051 0.00796448 -0.00819579 0.000320108 3
168 1 -2.83533 6.77266 21.5144 0.00572579 -0.0116898 9.64847e-05 3
169 1 -3.00305 9.23806 20.5404 0.00678829 -0.00120241 0.0031126 3
179 1 -2.21122 8.05513 21.0477 0.00569567 -0.00138988 0.00353001 3
196 1 -0.0593449 6.6558 21.1557 -0.000362831 0.00159033 -0.00220412 3
197 1 -0.799124 7.90366 20.8146 0.00389913 -0.00403402 -0.00347337 3
198 1 -0.171124 9.16647 20.3317 -0.000658724 -0.00234691 -0.00850186 3
208 1 1.35085 6.689 21.1538 0.0170478 0.00124934 -0.00113948 3
209 1 1.22617 9.11239 20.3366 0.000392858 -0.00152439 -0.00123234 3
219 1 2.0168 7.98349 20.7939 -0.000158832 -0.00214543 0.00161889 3
236 1 4.15258 6.79488 21.5215 -0.00236299 -0.00222335 -0.00209017 3
237 1 3.4284 8.03845 20.9669 -0.00964238 -0.00997216 0.00636525 3
238 1 4.11982 9.14849 20.3822 -0.00535409 -0.00661259 0.00346192 3
248 1 5.54831 6.79053 21.2781 -0.00491523 -0.000885464 -0.00586363 3
249 1 5.52104 9.17652 20.3766 -0.000763139 -0.00753228 -0.000316842 3
259 1 6.21176 7.92009 20.6746 -0.0057555 -0.00609295 -0.00508075 3
277 1 7.61168 8.00241 20.3047 -0.00777929 -0.00231315 -0.00270643 3
276 1 8.38515 6.77106 20.4529 -0.00477656 -0.00172761 -0.00431018 3
278 1 8.32904 9.2067 19.9957 -0.00412885 -0.00388299 -0.00124113 3
288 1 9.76877 6.80979 20.1244 -0.00738634 -0.00595032 -0.00611062 3
289 1 9.78595 9.24629 19.9229 -0.00900889 -0.00283612 -0.0101764 3
299 1 10.5301 8.03862 19.9511 -0.00137281 0.00139367 -0.0140504 3
135 1 -6.68481 -2.01607 22.0437 -0.000514712 0.000982843 -0.0106477 3
146 1 -4.30085 -5.61143 21.9561 0.0106731 0.00304807 -0.0118188 3
147 1 -5.12583 -4.37959 22.099 0.00109937 0.000172761 -0.0205511 3
148 1 -4.43901 -3.14708 22.3855 -0.000898486 0.00422026 -0.0207388 3
149 1 -5.27964 -1.9556 22.4881 -0.00446962 -0.000283336 -0.0184666 3
150 1 -4.57725 -0.689236 22.7657 0.011776 0.00685341 -0.0111019 3
164 1 -2.94979 -3.05613 22.5261 -0.0149331 0.00781991 -0.0116689 3
174 1 -2.13537 -4.27164 22.199 0.00487498 0.00308024 -0.00251426 3
187 1 -0.674198 -4.16434 22.1011 0.00532834 -1.07879e-05 -0.000490794 3
165 1 -3.14034 -0.591724 23.0579 0.00577887 -0.0038629 -0.00948389 3
175 1 -2.23961 -1.78627 22.8913 0.0031219 -0.00240668 -0.00813502 3
188 1 -0.0202015 -2.95291 22.4755 -0.00195917 -0.00466466 0.00264336 3
189 1 -0.77414 -1.76803 22.9512 0.00762722 -0.00419543 0.00671986 3
190 1 -2.34789e-05 -0.577588 23.1434 -0.00303414 -0.00205813 0.016738 3
227 1 3.49035 -4.43015 22.1632 6.23537e-05 0.00667437 -0.000904124 3
245 1 5.84002 -0.650079 22.1889 0.0105215 0.00561933 0.00270713 3
214 1 2.03912 -4.32202 22.1553 0.000770115 -0.00467475 0.000247683 3
228 1 4.31751 -3.17831 22.3781 0.00578322 -0.00244843 -0.00741304 3
229 1 3.68102 -1.89519 22.6542 -0.00793273 0.000266031 0.00475275 3
230 1 4.40246 -0.615948 22.5462 0.00188682 8.98059e-05 0.00620297 3
244 1 5.73977 -3.143 22.0446 -0.0119476 0.000826646 -0.00471665 3
204 1 1.461 -3.06337 22.5347 6.25544e-06 0.000470886 0.00106164 3
205 1 1.4985 -0.636044 23.0106 -0.000612084 -0.00285638 0.0101916 3
215 1 2.2379 -1.89681 22.821 0.0061707 -0.00243013 0.00155396 3
137 1 -6.61985 3.18471 21.9932 -0.00126749 -0.000273434 -0.0149017 3
153 1 -5.16032 3.22931 22.3385 -0.00580257 -0.00739475 -0.0135313 3
154 1 -4.32557 4.43512 22.2723 -0.0108261 -0.00125482 -0.00961751 3
136 1 -6.69977 0.650618 22.1336 0.0018005 0.00304305 -0.0119191 3
151 1 -5.28787 0.603463 22.5783 -0.00117106 -0.00778129 -0.0105531 3
152 1 -4.5269 1.93057 22.5557 0.00501689 -0.00945432 -0.0122423 3
167 1 -2.84975 4.32958 22.2702 -0.00493819 -0.0020686 -0.0124349 3
177 1 -2.19903 3.05077 22.555 0.00157486 -0.0032177 -0.00544053 3
194 1 -0.0687678 4.21749 22.0717 0.000391736 0.00185876 -0.00145669 3
166 1 -3.06462 1.82628 22.7641 -0.00296678 -0.00645215 -0.00765512 3
176 1 -2.35241 0.598224 23.092 -0.00110203 -0.00233632 -0.00657644 3
191 1 -0.84052 0.65409 23.2069 -0.000105979 -0.00348856 0.0118654 3
192 1 -0.00534756 1.78871 22.9489 -0.00277462 0.00886049 0.0086727 3
193 1 -0.754841 3.01834 22.5675 9.35237e-05 0.00580375 0.00314295 3
234 1 4.31197 4.39416 22.1902 -0.00196696 -0.00472336 -0.00730867 3
246 1 5.7916 1.85858 22.0936 0.00806716 -0.00570235 -0.00133039 3
231 1 3.75471 0.664758 22.621 -0.00023879 0.00501093 0.0052776 3
232 1 4.4065 1.93726 22.4666 0.000766289 -0.000190722 0.00606883 3
233 1 3.60875 3.20471 22.4478 -0.00478978 -0.00198036 -0.0026635 3
207 1 1.35568 4.26108 22.0784 0.00436 0.00102665 -0.000284034 3
217 1 2.14791 3.12393 22.5087 0.000508956 -0.00229307 -0.00161717 3
206 1 1.49904 1.86024 22.8508 0.00214055 7.76801e-05 0.00569696 3
216 1 2.2711 0.614559 22.9066 -0.00764293 -0.00221296 0.00594133 3
