ITEM: TIMESTEP
28300
ITEM: NUMBER OF ATOMS
168
ITEM: BOX BOUNDS pp pp pp
-1.4715758017245314e+01 1.5057610017245315e+01
-1.2710055654020760e+01 1.2664508654020761e+01
-5.0001035148846022e+01 1.0000103514884636e+02
ITEM: ATOMS id type x y z vx vy vz c_coord
92 1 -10.8085 -9.25113 20.0425 0.00579699 -0.000486932 0.00180383 3
93 1 -10.9021 -6.80029 20.0045 0.00396809 -0.00086253 -0.00408889 3
103 1 -9.37475 -9.22822 20.0981 -0.00151417 -0.0043737 0.00537689 3
104 1 -8.75536 -7.94304 19.9646 -0.00399904 -0.00228887 -0.00140976 3
105 1 -9.4311 -6.70121 19.9407 0.0120724 0.00193711 0.00374359 3
122 1 -7.31181 -8.05738 19.8759 0.00444487 -0.00102496 -0.00474941 3
132 1 -6.56835 -9.29071 20.0253 -0.00828761 -0.00223297 -0.00811262 3
133 1 -6.57397 -6.85286 19.682 0.0130923 -0.0115253 -5.15732e-05 3
143 1 -5.16523 -9.24321 19.9009 -0.00106788 -0.00768649 0.00186956 3
144 1 -4.44836 -8.06152 19.8914 0.011641 0.00703525 -0.00155117 3
145 1 -5.17408 -6.83486 19.7331 0.0166078 0.000407656 -0.00219905 3
162 1 -3.01729 -7.99403 19.7685 0.00134718 -0.0032986 0.00753984 3
172 1 -2.35377 -9.23245 19.7865 0.0150916 0.000636491 -0.00271133 3
173 1 -2.23407 -6.84092 19.5428 0.015178 -0.000656598 -0.00961115 3
183 1 -0.932037 -9.21804 19.7189 0.00914703 0.00093975 0.000315903 3
184 1 -0.218416 -8.04967 19.3398 0.00207453 0.010544 -0.00531463 3
185 1 -0.889281 -6.77598 19.2629 0.00427186 0.00409468 -0.000504439 3
202 1 1.21753 -8.00282 19.5037 -0.00155266 0.00547905 0.00742418 3
212 1 1.9366 -9.21946 19.7727 0.000101179 -0.00505837 0.0102239 3
213 1 1.89147 -6.7309 19.4793 -0.000681363 -0.00410173 0.00438819 3
223 1 3.33401 -9.23022 19.8077 -0.00472451 -0.00447629 0.0093871 3
224 1 4.03446 -8.02064 19.8372 -0.00428728 -0.000390649 0.0142599 3
225 1 3.29222 -6.77061 19.6933 -0.000289044 -0.00888849 0.00129502 3
242 1 5.43812 -8.05711 20.0024 0.00736279 0.000143778 0.00461294 3
252 1 6.22309 -9.19341 19.9819 -0.00267963 -0.00377672 0.005861 3
253 1 6.13963 -6.75937 20.0576 -0.0010813 -0.00283953 0.0112435 3
263 1 7.60122 -9.22001 20.1271 0.00261536 0.00319142 0.00219018 3
265 1 7.52144 -6.75439 20.3925 0.000294373 0.00599389 0.00467542 3
264 1 8.27142 -7.99116 20.3108 0.000283419 0.00723386 0.00963612 3
282 1 9.67019 -7.98367 20.304 -0.00323828 -0.0103572 0.00398384 3
292 1 10.4827 -9.23255 20.2398 0.00971853 0.00314426 0.0047646 3
293 1 10.4607 -6.77345 20.2736 0.00110875 -0.00506446 -0.00248275 3
94 1 -10.8343 -4.32122 19.8537 0.000966656 0.00594728 0.00218189 3
95 1 -10.8518 -1.84592 19.863 -0.0108556 -0.000415731 -0.00216498 3
106 1 -8.70239 -5.54565 19.6939 0.00154801 0.00069662 0.00930062 3
107 1 -9.38999 -4.25007 19.7194 -0.000496431 -0.00781282 0.0119051 3
108 1 -8.6621 -3.05784 19.4112 -0.00456963 -0.00332712 0.00571413 3
109 1 -9.44353 -1.81286 19.449 -0.00389623 -0.00700164 0.000299098 3
110 1 -8.67563 -0.675757 19.213 -0.000993788 0.00873116 -0.00840785 3
123 1 -7.28234 -5.61636 19.4639 0.007007 -0.00268724 0.0125411 3
125 1 -7.21257 -0.638491 19.0768 -0.0139833 0.000585675 0.00191586 3
124 1 -7.22362 -3.15209 19.328 0.00761824 -5.76657e-05 0.009318 3
186 1 -0.280878 -5.51641 19.3479 0.00744783 0.00253645 0.000486728 3
134 1 -6.53069 -4.39996 19.325 -0.00586272 -0.0101375 0.00797271 3
163 1 -3.04755 -5.6798 19.55 -0.00206409 -0.000132702 -0.00228451 3
135 1 -6.56272 -1.93134 19.0865 -0.00838327 0.00571895 -0.00188908 3
146 1 -4.46477 -5.6446 19.5711 0.000604745 -0.00358204 0.00396454 3
147 1 -5.14634 -4.40822 19.4439 0.00381972 0.00781168 -0.00122087 3
148 1 -4.49501 -3.14731 19.3408 0.00208995 0.00368172 -0.0048818 3
149 1 -5.1559 -1.88833 19.1546 0.00215867 0.000553572 2.26058e-05 3
164 1 -3.09263 -3.14525 19.4932 -0.00660722 -0.00286408 -0.00517674 3
174 1 -2.39837 -4.4041 19.4979 -0.0023545 0.00659281 0.00118787 3
150 1 -4.36555 -0.683298 19.0701 -0.00716424 -0.00342089 -0.000397067 3
187 1 -1.00958 -4.30178 19.476 -0.00536337 -0.00399824 -0.0107576 3
165 1 -3.00708 -0.668536 19.3579 0.00562377 -0.00320195 -0.000389472 3
175 1 -2.31963 -1.92932 19.5748 -0.000741073 0.00722286 -0.00325174 3
188 1 -0.219071 -3.12421 19.758 0.000489162 0.00104639 -0.0106601 3
189 1 -0.943746 -1.90129 19.9195 -0.00201859 -0.00041655 -0.00701278 3
190 1 -0.221325 -0.694792 20.0715 -0.00412573 -0.00288156 -0.00664662 3
203 1 1.12458 -5.50543 19.4841 0.00162472 -0.000351172 -0.0051449 3
226 1 3.98959 -5.56644 19.9206 0.00150154 -0.00385643 -0.00205736 3
243 1 5.42267 -5.53982 20.0466 -0.00698269 -0.00259176 0.0166369 3
254 1 6.17223 -4.31937 20.0996 -0.00256972 -0.00363179 0.0135694 3
255 1 6.2811 -1.88996 20.0569 0.0109899 0.00552942 0.0101443 3
227 1 3.30309 -4.31709 19.9187 -0.00043348 0.00645151 -0.00426902 3
244 1 5.49095 -3.14651 20.0168 -0.0076951 0.00261168 -0.000773047 3
214 1 1.86649 -4.33387 19.767 0.000459137 0.00229666 0.00583309 3
228 1 4.06956 -3.11424 19.8582 0.0128186 -0.000474527 -0.00804269 3
245 1 5.60117 -0.645387 19.9365 0.00169502 -0.0112047 0.011268 3
229 1 3.37125 -1.87152 19.8798 0.0050869 0.00218602 0.00269489 3
230 1 4.17008 -0.688885 19.975 0.00135841 0.00236154 0.00730564 3
204 1 1.1544 -3.0927 19.852 0.00169137 0.00542676 -0.00593818 3
215 1 1.98566 -1.94152 20.083 0.0039331 0.00306535 0.00436875 3
205 1 1.27872 -0.722603 20.1417 -0.00476729 -0.00453203 0.000441442 3
269 1 7.70723 -1.84374 20.2817 0.00303129 -0.00474666 -0.000667307 3
267 1 7.60057 -4.26641 20.2946 0.00407746 0.00531006 0.0169024 3
266 1 8.30592 -5.5134 20.4306 0.00295206 0.00520072 0.0149292 3
268 1 8.37483 -3.08877 20.3783 0.00176404 -0.0041347 0.0141151 3
270 1 8.40268 -0.602753 20.1609 -0.00262599 0.00501551 -0.0114009 3
283 1 9.73849 -5.55166 20.4099 -0.00437408 -0.0110402 -0.00179698 3
284 1 9.79783 -3.11095 20.3914 0.00993265 -0.00891754 0.0116104 3
285 1 9.86332 -0.603672 20.2208 0.00908582 -0.00565311 -0.0168684 3
294 1 10.5433 -4.33112 20.3232 0.0045703 -0.0100316 -0.00420501 3
295 1 10.5358 -1.87006 20.1681 -0.00359806 0.00268906 -0.00733208 3
96 1 -10.8184 0.579991 19.791 -0.00461812 -0.00938344 -0.00640229 3
97 1 -10.8567 3.06107 19.8293 0.000696577 0.00414061 0.0092848 3
98 1 -10.8757 5.48156 19.9318 0.00451316 0.0107302 -0.000559083 3
111 1 -9.4042 0.595994 19.3653 0.00367862 0.000839447 0.00183968 3
112 1 -8.69209 1.79052 19.4739 -5.11022e-05 0.0139827 -0.00886341 3
113 1 -9.41203 2.98497 19.7073 -0.00176345 -0.00390021 0.00858454 3
114 1 -8.65595 4.23853 19.6574 -0.00921937 0.00167258 -0.00211157 3
115 1 -9.42899 5.44895 19.8782 0.00919553 0.0103887 0.00743286 3
126 1 -7.23019 1.83226 19.2228 -0.00993023 0.00417005 0.0108748 3
127 1 -7.26888 4.29867 19.468 -0.00242372 -0.00169694 0.00601762 3
138 1 -6.50409 5.54624 19.5966 0.00651238 0.00419901 0.0091428 3
195 1 -0.887858 5.55602 19.5418 -0.006616 0.00643746 -0.00589443 3
155 1 -5.09955 5.59926 19.5527 0.00839973 -0.000961602 0.00549584 3
178 1 -2.28116 5.55568 19.5541 0.00839663 -0.00283466 -0.00364783 3
137 1 -6.58594 3.06037 19.3126 -0.00679515 -0.0139456 0.00951492 3
153 1 -5.16788 3.11355 19.387 0.000501049 -0.00496221 0.00428479 3
154 1 -4.43644 4.34469 19.4759 0.0014626 -0.000102643 -0.00779361 3
136 1 -6.46941 0.635339 18.9619 0.00116455 -0.00170336 0.00521996 3
151 1 -5.03496 0.596858 19.0559 -0.00305254 -0.00105017 -0.00318161 3
167 1 -3.05191 4.32592 19.5339 0.000965204 -0.00736294 -0.0140127 3
152 1 -4.41913 1.92582 19.2605 -0.000345634 -0.0011085 -0.00494773 3
177 1 -2.36639 3.04808 19.6304 -0.00474172 -0.00473779 -0.00210943 3
194 1 -0.236206 4.32218 19.77 0.00400827 -0.0113409 -0.00505144 3
166 1 -3.05917 1.8205 19.6165 -0.00418691 0.000603689 -0.00670873 3
176 1 -2.36469 0.555195 19.681 -0.0030708 -0.00286718 -0.0145036 3
193 1 -0.988349 3.02529 19.8949 0.00265944 0.000503454 -0.0040154 3
191 1 -0.955752 0.528784 20.0471 0.00507651 0.00474926 -0.00837642 3
192 1 -0.2781 1.80545 20.2352 -0.000849368 -0.00287427 -0.00192407 3
218 1 1.84717 5.55728 19.8303 -0.00184657 -0.00420347 0.000129172 3
235 1 3.22332 5.51671 19.8625 -0.00082214 0.00730726 0.00213244 3
247 1 5.44882 4.3821 20.2738 -0.000805474 0.00126897 0.0130168 3
257 1 6.27773 3.16546 20.3502 -0.00447215 -0.00145854 0.00936724 3
258 1 6.17442 5.60748 20.3283 -0.00675306 0.00124579 0.0114217 3
234 1 4.02399 4.33963 20.0544 -0.000143173 0.00382963 -0.000267881 3
256 1 6.28582 0.634146 19.9897 0.00926949 0.00746068 0.00317985 3
246 1 5.57629 1.87816 20.0979 0.000188028 0.00532478 0.0121686 3
233 1 3.33377 3.09346 19.9557 0.00479243 0.000395438 -0.00786593 3
231 1 3.40785 0.587317 20.0519 0.00238475 0.00442643 0.000510365 3
232 1 4.11922 1.86458 19.9995 0.0043759 -0.00139409 0.00111668 3
207 1 1.19429 4.29774 19.8949 -0.00805406 0.000752712 -0.0116894 3
217 1 1.85061 3.0216 20.0066 -0.0077628 -0.00141728 -0.00486149 3
206 1 1.16254 1.77236 20.1756 0.00242368 0.00757842 -0.00509049 3
216 1 1.94374 0.52974 20.1651 -0.000126209 -0.0130363 0.00860964 3
275 1 7.61083 5.55577 20.5925 0.000877825 -0.0031012 0.00746458 3
271 1 7.72542 0.626436 20.1201 -0.000548678 0.00307387 -0.00918125 3
273 1 7.68234 3.10644 20.51 0.00138326 0.00734331 0.00405859 3
272 1 8.40808 1.88552 20.3837 -0.00378024 -0.00798518 0.00786728 3
274 1 8.38472 4.36968 20.5924 0.00853227 -0.00505987 0.00951988 3
286 1 9.82557 1.82178 20.334 -0.0011032 -0.000211587 0.00349109 3
287 1 9.80706 4.30801 20.5067 -0.00597684 0.00794389 0.00115898 3
296 1 10.5551 0.647708 20.1147 0.00492535 -0.0089475 -0.00827807 3
297 1 10.5194 3.07351 20.2424 0.00370098 0.00740138 0.00255172 3
298 1 10.5585 5.52571 20.4349 0.00381227 -0.00286729 0.00168272 3
99 1 -10.8422 7.95201 19.9719 -0.0117299 -0.00165925 -0.00633289 3
116 1 -8.69426 6.66848 19.9685 0.00449596 0.00278571 -0.00216746 3
117 1 -9.39271 7.9159 20.0222 -0.00535741 -0.001022 0.00460221 3
118 1 -8.73472 9.16639 20.0283 0.000560926 0.00570301 0.0042315 3
128 1 -7.24718 6.76372 19.8793 -0.00141358 -0.00566519 0.00535 3
129 1 -7.31208 9.17851 20.0438 -0.00352936 -0.00276201 0.00171127 3
139 1 -6.54017 7.98386 19.9665 0.00676236 0.0037817 -0.00807902 3
156 1 -4.35911 6.83901 19.6231 0.00677596 0.00419853 0.00259742 3
157 1 -5.1102 8.03777 19.7929 0.00241157 -0.00637702 -0.00310509 3
158 1 -4.42766 9.22848 19.9303 0.00705102 4.46826e-05 -0.00852225 3
168 1 -2.91127 6.84022 19.5474 0.0108061 0.000379664 -0.00561911 3
169 1 -3.04229 9.20012 19.8239 0.0047975 -0.006397 0.00185573 3
179 1 -2.25193 8.06988 19.5899 0.0101862 -0.00294713 -0.00283695 3
196 1 -0.181505 6.79364 19.5183 0.0153291 -0.0149595 -0.00840212 3
197 1 -0.830789 8.07282 19.4902 0.0129165 0.00167321 -0.00444775 3
198 1 -0.160627 9.27165 19.6432 0.00854693 -0.00289289 0.00476821 3
208 1 1.21759 6.82115 19.5574 -0.00329147 -0.00384017 0.00623753 3
209 1 1.24807 9.2803 19.7685 0.00253213 -0.00164394 0.0028033 3
219 1 1.93635 8.08384 19.6784 0.0135051 0.00443527 0.00978515 3
236 1 3.92461 6.71269 19.9343 -0.00820041 0.00138646 0.00720227 3
237 1 3.33277 7.9951 19.7542 -0.000422699 0.0011342 0.00790605 3
238 1 4.01855 9.21727 19.8997 -0.000788341 -0.000465113 0.000431079 3
248 1 5.35871 6.75481 20.1451 -0.00289933 -0.00801616 0.0103953 3
249 1 5.45636 9.17512 19.9285 0.00905512 0.000699708 0.00273205 3
259 1 6.08765 7.93425 20.0168 -0.0117713 0.00502374 -0.000200375 3
277 1 7.51725 7.93767 20.2571 0.00193929 0.00226102 0.00811004 3
276 1 8.28667 6.80344 20.5845 0.00365276 -0.00750076 0.0105166 3
278 1 8.30702 9.14791 20.1103 0.00760275 0.00633164 0.008527 3
288 1 9.76465 6.72561 20.4717 0.00301548 0.00101759 -0.00224424 3
289 1 9.74724 9.15901 20.1079 -0.00789783 0.00259555 0.00617253 3
299 1 10.4456 7.97247 20.2418 -0.000692683 0.00370351 -0.00447451 3
