ITEM: TIMESTEP
6400
ITEM: NUMBER OF ATOMS
168
ITEM: BOX BOUNDS pp pp pp
-1.4715758017245314e+01 1.5057610017245315e+01
-1.2710055654020760e+01 1.2664508654020761e+01
-5.0001035148846022e+01 1.0000103514884636e+02
ITEM: ATOMS id type x y z vx vy vz c_coord
92 1 -10.8414 -9.26649 19.9999 -0.0040371 0.00422996 4.30876e-05 3
93 1 -10.8191 -6.77554 19.9703 -0.00234009 0.00765575 -0.000883939 3
103 1 -9.39263 -9.20438 19.9825 0.00264087 0.00895251 -0.000337333 3
104 1 -8.61245 -8.01223 19.8929 0.00587814 0.00811079 -7.8509e-05 3
105 1 -9.38413 -6.7887 19.8777 0.00152987 0.00602429 0.000735801 3
122 1 -7.16245 -8.06543 19.8589 0.00443329 0.00597997 -0.000880078 3
132 1 -6.47089 -9.31364 19.9539 0.000789362 -0.000673614 -0.000241983 3
133 1 -6.44562 -6.87006 19.7424 0.0103753 0.00518838 -0.00242987 3
143 1 -5.07815 -9.26833 19.9448 0.00117786 0.00151252 -0.000283988 3
144 1 -4.32821 -8.08125 19.8462 -0.000149 -0.00107759 -0.000336523 3
145 1 -5.03236 -6.86534 19.7248 0.00662354 0.00250798 -0.00234803 3
162 1 -2.94486 -8.06925 19.8186 0.00918868 0.00539162 -0.00187453 3
172 1 -2.28025 -9.27377 19.9218 -0.00158848 0.00483156 -0.000655229 3
173 1 -2.35148 -6.72557 19.6713 0.00721176 0.00410488 -0.0017773 3
183 1 -0.90098 -9.22774 19.9175 0.00111786 0.00554359 -0.00120498 3
184 1 -0.299181 -7.99501 19.7751 -0.00127883 0.0064908 -0.0024729 3
185 1 -0.972792 -6.73485 19.6427 0.00405279 0.00611516 -0.00130234 3
202 1 1.09973 -8.0369 19.7796 -0.00654592 0.00171805 -0.00252894 3
212 1 1.86268 -9.25073 19.9077 0.00621277 -0.000242444 -0.00102668 3
213 1 1.75214 -6.81387 19.6452 -0.0115931 0.00660102 -0.00304275 3
223 1 3.27349 -9.28158 19.9153 0.00111005 -0.000743891 -0.00034232 3
224 1 3.95229 -8.09486 19.8418 -0.0103647 -0.00867505 -0.00168942 3
225 1 3.18135 -6.88945 19.7055 -0.00671917 -0.00649453 -0.00277428 3
242 1 5.42418 -8.05626 19.8916 -0.000517668 -7.92219e-05 -0.0014873 3
252 1 6.27567 -9.23751 19.9684 -0.00395215 0.00209988 -0.000322131 3
253 1 6.05156 -6.79479 19.8286 -0.00183451 -0.00926755 -0.00184704 3
265 1 7.45068 -6.74649 19.8892 -0.00724743 -0.00227019 -0.00145771 3
263 1 7.685 -9.15616 19.9753 -0.00325695 -0.00285191 -0.00028857 3
264 1 8.29978 -7.90936 19.9528 -0.00525065 0.000484327 -0.000581638 3
282 1 9.75794 -7.94405 19.9751 -0.00860537 0.00999689 -7.54171e-05 3
292 1 10.5104 -9.19989 19.9927 0.0038047 -0.00202953 0.000110514 3
293 1 10.453 -6.70494 19.9805 -0.00637129 -0.0013975 3.17179e-05 3
94 1 -10.8896 -4.34095 19.9697 0.00165277 -0.0041977 -0.000753621 3
95 1 -10.8981 -1.87492 19.9768 0.000548513 0.00452362 -0.000803253 3
106 1 -8.7139 -5.5757 19.7843 0.00307117 0.0133969 -0.000595849 3
107 1 -9.4364 -4.33462 19.8427 0.00483488 -0.00384446 -0.000235551 3
108 1 -8.80301 -3.10362 19.7683 0.0109869 0.00848884 -0.00191432 3
109 1 -9.47769 -1.83616 19.8501 0.00205504 0.00113758 -0.000735831 3
110 1 -8.80069 -0.65502 19.7708 0.00150429 -0.000109232 -0.00059954 3
123 1 -7.29042 -5.71437 19.6932 0.00249554 0.0159351 -0.00242729 3
124 1 -7.39607 -3.17656 19.6284 0.00779701 0.00278126 -0.00293322 3
125 1 -7.44633 -0.682498 19.6275 0.00942742 0.00192184 -0.00255653 3
134 1 -6.71821 -4.47339 19.6171 0.000891947 0.0141836 -0.00401164 3
135 1 -6.78897 -1.92283 19.5685 -0.00125842 0.00323235 -0.00386307 3
146 1 -4.49763 -5.6059 19.6065 0.00237369 0.00985761 -0.00407867 3
147 1 -5.33026 -4.44831 19.5483 0.00263135 0.0107039 -0.00486907 3
148 1 -4.7998 -3.16266 19.5364 0.013449 0.00315843 -0.00162057 3
149 1 -5.41721 -1.90387 19.5395 0.0116501 0.00267023 -0.00367815 3
150 1 -4.75959 -0.664805 19.6131 0.0132931 0.00528967 0.000277868 3
163 1 -3.10736 -5.48227 19.5735 0.0100889 0.00305661 -0.00221953 3
164 1 -3.40677 -3.06437 19.664 0.00739905 0.00725765 0.00565255 3
165 1 -3.41981 -0.642885 20.0094 0.0133108 0.00266991 0.0186156 3
174 1 -2.51853 -4.19924 19.6046 0.00809165 0.00271715 0.00228657 3
175 1 -2.74092 -1.90643 20.0123 0.00666289 -0.0063099 0.0150883 3
186 1 -0.375706 -5.44905 19.5918 0.00463217 0.00438112 0.00245606 3
187 1 -1.08927 -4.17967 19.7288 0.00503113 0.00380166 0.00584333 3
188 1 -0.439729 -2.99797 20.1086 0.0117561 0.00978849 0.0177834 3
189 1 -1.32977 -1.87283 20.3587 -0.000578001 0.0016016 0.0184738 3
190 1 -0.693223 -0.648557 20.7282 0.00447424 -0.00504834 0.0202494 3
203 1 1.03877 -5.52479 19.5896 0.00153659 0.0119445 0.00394812 3
204 1 1.02954 -3.03168 20.0456 0.0133981 0.0120988 0.0184899 3
205 1 0.781276 -0.607867 20.6639 0.00771183 0.00077419 0.014936 3
214 1 1.66928 -4.27568 19.6953 -0.00209742 0.00108321 0.00990411 3
215 1 1.63243 -1.7616 20.2784 0.00580132 0.00197995 0.0185106 3
226 1 3.83462 -5.65248 19.6152 -0.00645671 -0.00292732 -0.00207862 3
227 1 3.09357 -4.37494 19.5792 0.00135779 0.00131958 0.00431515 3
228 1 3.79546 -3.13049 19.5998 -0.00939652 0.000347512 0.00946887 3
229 1 3.07483 -1.85965 19.8869 0.00312723 0.00993631 0.0202372 3
230 1 3.79808 -0.615862 19.8121 0.00699883 0.00361746 0.0224376 3
243 1 5.27052 -5.55641 19.6858 -0.000700832 -0.00613644 -0.0025624 3
244 1 5.25548 -3.1162 19.5537 -0.0134727 0.00550611 -0.0019349 3
245 1 5.33661 -0.662983 19.5415 -3.24441e-05 0.0011112 0.00789272 3
254 1 6.00214 -4.31139 19.651 0.00171688 -0.000311918 -0.00281616 3
255 1 6.07769 -1.9111 19.5565 0.0100648 0.00851969 -0.000854115 3
269 1 7.54325 -1.92129 19.7059 -0.00332085 0.00915587 -0.00454067 3
267 1 7.49751 -4.26592 19.7803 -0.0104283 -0.00373221 -0.00322772 3
266 1 8.17631 -5.52308 19.8781 -0.00628375 0.00124546 -0.00144107 3
268 1 8.33937 -3.09913 19.8125 -0.00440168 0.000886632 -0.00301397 3
270 1 8.256 -0.675933 19.7603 0.0205148 -0.00238984 -0.00186105 3
283 1 9.66319 -5.50089 19.9469 -0.00358781 -0.00541508 -0.000425998 3
284 1 9.79174 -3.09808 19.9172 -0.000144167 -0.00692855 -0.000501838 3
285 1 9.70398 -0.673437 19.8886 0.014635 -0.00290186 -0.00078935 3
294 1 10.485 -4.32593 19.9619 0.00148715 0.00206887 -3.0884e-05 3
295 1 10.4394 -1.85409 19.9408 0.0026933 -0.00844973 -0.000808211 3
96 1 -10.9158 0.55006 19.9731 -0.000834093 -0.00584551 -0.00123323 3
97 1 -10.8681 3.04806 19.9694 0.00728509 0.00458198 -0.00101453 3
98 1 -10.8192 5.51576 19.9596 0.00317702 -0.00478847 -0.00175208 3
111 1 -9.5147 0.585168 19.8534 -0.00772885 -0.00398144 0.000374337 3
112 1 -8.81633 1.84498 19.7696 0.00529956 -0.00863036 -0.00107826 3
113 1 -9.43058 3.08612 19.8397 -0.000455483 -0.00405801 0.000466554 3
114 1 -8.68018 4.30743 19.7673 0.00357791 -0.0110425 -0.00074188 3
115 1 -9.37556 5.51976 19.8502 -0.000976925 -0.00510667 0.000895638 3
127 1 -7.30145 4.36022 19.6527 0.0043689 -0.00392031 -0.00280005 3
126 1 -7.44506 1.78264 19.6315 0.00563418 -0.0101002 -0.0032574 3
136 1 -6.7897 0.547369 19.566 -0.00569328 -0.00612736 -0.00307076 3
137 1 -6.81382 3.07745 19.5829 0.00665131 -0.000716599 -0.00471794 3
138 1 -6.58105 5.61837 19.6715 -0.00531025 -0.000558619 -0.00272083 3
151 1 -5.3955 0.60761 19.5484 0.00742673 -0.00188461 -0.00296154 3
152 1 -4.74275 1.88159 19.5606 0.00892071 -0.00398518 -0.000547928 3
153 1 -5.41505 3.12931 19.5126 0.0117671 -0.000888607 -0.00550333 3
154 1 -4.61068 4.31362 19.5271 0.00459113 -0.00123243 -0.00445228 3
155 1 -5.19147 5.59115 19.6209 0.00469922 -0.00211544 -0.00391363 3
166 1 -3.37265 1.89927 19.8985 0.0131031 -0.00420303 0.0178838 3
167 1 -3.22001 4.29599 19.5637 0.00929166 -0.00159212 0.00194483 3
176 1 -2.82894 0.658931 20.3348 0.000945754 -0.000541757 0.0174641 3
177 1 -2.58493 3.10108 19.8517 0.00117316 0.00679072 0.0136506 3
178 1 -2.44284 5.43948 19.5777 0.0138607 -0.0104179 -0.0030221 3
191 1 -1.47331 0.566807 20.712 -0.00308585 -0.000119634 0.0142716 3
192 1 -0.595363 1.74792 20.5962 0.0104136 0.00196503 0.0121655 3
193 1 -1.19487 3.02015 20.2423 0.00135754 -0.013134 0.0154273 3
194 1 -0.397564 4.17517 19.8238 0.010012 -0.00969349 0.0159124 3
195 1 -1.04447 5.40883 19.5699 0.0158243 -0.00913241 0.00212272 3
206 1 0.825425 1.79354 20.5138 0.00732572 -0.00654107 0.00933754 3
207 1 1.00205 4.19012 19.7869 0.0178104 -0.00484893 0.0151544 3
216 1 1.60395 0.567077 20.5434 0.00786071 -0.00365868 0.00832165 3
217 1 1.64981 2.96278 20.0911 0.0152236 -0.00762384 0.0140992 3
218 1 1.67051 5.48948 19.5619 0.00219006 -0.00277334 0.00352161 3
231 1 3.08601 0.544808 20.1247 0.00942394 -0.00411587 0.0225635 3
232 1 3.75687 1.76051 19.7478 -0.00142026 -0.00057619 0.0194135 3
233 1 3.04702 2.99989 19.7562 0.0016988 0.00055732 0.0190616 3
234 1 3.74878 4.30202 19.5663 -0.0113986 -0.0029431 0.003766 3
235 1 3.03921 5.60849 19.5831 -0.00429013 0.00895682 -0.00111232 3
246 1 5.28687 1.79153 19.5338 0.00412806 -0.00710031 0.0036584 3
247 1 5.19491 4.30964 19.5998 -0.00902887 -0.00199131 -0.00350998 3
256 1 6.14753 0.57355 19.5337 0.00747898 -0.00519182 -0.000507923 3
257 1 5.96892 3.04547 19.5871 -0.00528548 -0.00116092 -0.00278495 3
258 1 5.9332 5.56177 19.7389 -0.0060926 0.00402827 -0.00297752 3
271 1 7.61217 0.611068 19.6881 0.00997259 0.00440334 -0.00323462 3
273 1 7.44173 3.10115 19.7292 -0.00604518 0.00302135 -0.00355804 3
275 1 7.41917 5.46611 19.8306 -0.00892683 0.0108197 -0.0018963 3
272 1 8.2507 1.88511 19.7694 0.00934265 0.00603432 -0.00256941 3
274 1 8.23397 4.27757 19.8371 0.000284736 0.00230116 -0.00167077 3
286 1 9.73367 1.80362 19.8949 0.01003 0.00894388 -0.000560593 3
287 1 9.73463 4.25016 19.924 -0.00825376 0.00715923 -0.000723596 3
296 1 10.4675 0.570997 19.9397 0.0121266 -0.00128896 -0.000726451 3
297 1 10.456 3.0221 19.9464 0.00318686 0.0128117 -0.000400934 3
298 1 10.4671 5.47429 19.9651 -0.00434488 0.00189095 -0.00012958 3
99 1 -10.8153 7.96095 19.986 0.00547733 -0.000619965 -0.000644698 3
116 1 -8.60899 6.73273 19.829 0.00178225 -0.00435121 -2.62997e-05 3
117 1 -9.35486 7.9021 19.9277 0.00985995 -0.00574175 -0.000703417 3
118 1 -8.67246 9.16932 19.9603 0.000635428 0.00529692 0.00039901 3
129 1 -7.28055 9.2081 19.9482 0.00811543 -0.00374491 -0.000513011 3
128 1 -7.18038 6.86298 19.775 -0.00336644 0.00150255 -0.000743593 3
139 1 -6.4403 8.09292 19.8595 0.00907565 -0.00287285 -0.00138324 3
156 1 -4.42523 6.81463 19.7208 -0.000289247 -0.00489603 -0.00233826 3
157 1 -5.036 8.07582 19.8452 0.00520268 -0.0150995 -0.00225108 3
158 1 -4.34224 9.28585 19.9466 -0.00431581 -0.00576425 -7.54935e-05 3
168 1 -3.04936 6.70855 19.6768 0.00778497 -0.0142661 -0.0036751 3
169 1 -2.96508 9.21312 19.9382 0.00437501 0.00856311 0.000212343 3
179 1 -2.3515 7.94916 19.809 -0.00852264 0.000729254 -4.40988e-05 3
196 1 -0.371237 6.6836 19.6082 0.00324835 -0.00162195 -0.00260451 3
197 1 -0.97765 7.97649 19.783 -0.00431663 -0.00440339 -0.00256136 3
198 1 -0.241291 9.2077 19.9074 -0.0047888 -0.00433494 -0.00169898 3
208 1 1.04464 6.76808 19.616 -0.00160815 -0.000698292 -0.0035754 3
209 1 1.14275 9.21131 19.9063 -0.000963217 -0.00317818 -0.000855364 3
219 1 1.76713 7.99454 19.7681 -0.00274978 -0.00140552 -0.00344968 3
236 1 3.81403 6.8331 19.7228 0.000124755 0.00871492 -0.00278315 3
237 1 3.19621 8.10874 19.8207 0.00100506 0.00399995 -0.00208021 3
238 1 4.08437 9.21637 19.93 -0.00120048 0.0112164 0.000210623 3
248 1 5.26662 6.84514 19.8045 -0.00797428 0.00742839 -0.00230102 3
249 1 5.48739 9.21614 19.9466 -0.00284335 0.000914661 -0.000889526 3
259 1 6.14288 7.96644 19.9088 -0.00490741 0.0104266 -0.00105598 3
276 1 8.2599 6.61908 19.9157 0.00262272 0.00700832 -0.000520893 3
277 1 7.5876 7.89551 19.9403 -0.0103835 0.00870245 -0.000715102 3
278 1 8.34903 9.09681 19.9775 -0.0036458 -0.00025807 -0.000319574 3
288 1 9.72965 6.69272 19.9561 -0.000780588 -0.00262408 -0.00026969 3
289 1 9.76471 9.18252 19.9848 -0.000265304 0.000374663 -0.000174962 3
299 1 10.4817 7.92653 19.9816 -0.00268794 0.00312792 -1.26991e-05 3
