ITEM: TIMESTEP
45700
ITEM: NUMBER OF ATOMS
168
ITEM: BOX BOUNDS pp pp pp
-1.4715758017245314e+01 1.5057610017245315e+01
-1.2710055654020760e+01 1.2664508654020761e+01
-5.0001035148846022e+01 1.0000103514884636e+02
ITEM: ATOMS id type x y z vx vy vz c_coord
92 1 -10.8053 -9.23786 20.0238 0.00124667 -0.00941508 -0.00382743 3
93 1 -10.8264 -6.81249 20.0043 0.0018706 -0.00086423 0.00953524 3
103 1 -9.38132 -9.17206 19.9376 -0.0101866 0.0010621 -0.00887167 3
104 1 -8.72749 -7.96147 19.9444 -0.00450756 0.00340889 -0.00205692 3
105 1 -9.41155 -6.74295 20.0294 -0.001276 -0.00674326 0.00479009 3
122 1 -7.28494 -7.96406 20.0854 0.00582532 -0.00677883 -0.00175727 3
132 1 -6.59681 -9.19898 20.15 -0.00125816 -0.000226723 0.00211022 3
133 1 -6.58241 -6.7125 20.1926 0.00440277 -0.00188679 0.000625231 3
143 1 -5.22677 -9.20765 20.0977 -0.00111737 -0.000651815 0.0114906 3
144 1 -4.47062 -8.00125 20.174 -0.00357122 -0.00230518 0.00131229 3
145 1 -5.17166 -6.7621 20.1551 0.000910103 -0.000593882 -0.00356131 3
162 1 -3.07698 -8.01824 20.2294 -0.00244276 -0.0127953 0.00498907 3
172 1 -2.29501 -9.23346 20.2147 0.00369798 -0.00547277 0.00142316 3
173 1 -2.37232 -6.81445 20.222 -0.0018101 0.00117673 0.00492715 3
183 1 -0.919692 -9.22003 20.2076 -0.00263821 0.00197136 0.00429999 3
184 1 -0.22617 -7.93471 20.2599 0.00347531 0.000626488 0.00595706 3
185 1 -0.947686 -6.70561 20.2376 -0.00389805 -0.00276848 -0.003315 3
202 1 1.16913 -7.93618 20.0683 0.00525226 0.000968552 -0.0034028 3
212 1 1.86651 -9.19314 19.9028 -0.00605223 0.00466158 -0.000304729 3
213 1 1.82953 -6.69959 19.9377 0.00123535 -0.00660787 0.00104655 3
223 1 3.25883 -9.27268 20.0239 0.00573568 -0.00383262 0.0044921 3
224 1 3.99119 -7.9998 19.9879 -0.00367889 0.000838381 -0.00621761 3
225 1 3.23856 -6.78826 20.0297 -3.53436e-05 -0.0058833 0.00777455 3
242 1 5.43911 -8.01485 20.0939 -0.000354155 -0.00406343 -0.00650168 3
252 1 6.18237 -9.23045 20.1549 -0.00623349 -0.00782697 -0.0017927 3
253 1 6.14543 -6.81166 20.3119 -0.00706497 0.000536429 -0.0166215 3
265 1 7.59201 -6.84433 20.395 0.0089758 -0.000213766 -0.0124289 3
263 1 7.58418 -9.23839 20.1797 -0.00295651 0.00104347 0.00350417 3
264 1 8.29618 -8.03159 20.2293 0.00586272 -0.00352586 -0.00670514 3
282 1 9.71758 -8.03009 20.212 0.0026293 0.00839801 -0.00553803 3
292 1 10.5071 -9.21575 20.1198 -0.00278898 -0.00194192 -0.00393542 3
293 1 10.5358 -6.83449 20.2998 -0.00289206 0.00175876 0.000930015 3
94 1 -10.8292 -4.33375 20.0751 -0.00836228 0.00239025 -0.0040567 3
95 1 -10.8656 -1.8618 19.8344 0.00118286 0.00986017 0.00559319 3
106 1 -8.68593 -5.53502 20.0962 -0.00506914 -0.0111476 0.00195374 3
107 1 -9.38859 -4.34039 20.0492 -0.0136757 -0.00529012 0.00180423 3
108 1 -8.70781 -3.11143 19.812 0.0126589 -0.00817177 0.00527894 3
109 1 -9.41274 -1.93232 19.6581 0.00991836 0.000628495 0.0114613 3
110 1 -8.72042 -0.676075 19.4452 0.00725228 -0.000402928 0.0178174 3
125 1 -7.29069 -0.685131 19.4257 -0.00369637 -0.00184763 0.0164908 3
124 1 -7.24935 -3.09782 19.8782 -0.00539384 -0.0108442 0.000401563 3
123 1 -7.26968 -5.48702 20.2446 -0.0122208 0.00579311 0.00703907 3
186 1 -0.160727 -5.51949 19.9626 -0.00366543 -0.00175189 -0.00193883 3
134 1 -6.49648 -4.30702 20.2122 -0.00884902 -0.00183181 0.00778872 3
163 1 -3.09072 -5.56107 20.0627 -0.00525074 -0.00044857 -0.00310266 3
135 1 -6.51336 -1.89232 19.6906 0.00253837 -0.00073531 0.0132858 3
146 1 -4.4525 -5.58088 19.9205 -0.0038823 -0.00567262 0.0100037 3
147 1 -5.11551 -4.33154 19.9211 -0.00479722 0.0039454 0.00727371 3
148 1 -4.37324 -3.13968 19.8316 -0.00043427 -0.00893933 -0.00556575 3
149 1 -5.03206 -1.90253 19.7151 -0.00698604 -0.00803392 0.00758047 3
164 1 -2.91736 -3.128 19.9746 -0.00641483 0.00742438 -0.00180329 3
174 1 -2.25845 -4.38423 19.9473 -0.00565634 -0.0152307 0.00215857 3
150 1 -4.41495 -0.616476 19.731 -0.000444552 -0.00162881 -0.00683054 3
187 1 -0.806395 -4.26189 19.9459 -0.00369129 -0.00271674 0.00207279 3
165 1 -3.01909 -0.572282 19.8946 0.00851966 0.000781968 -0.00367361 3
175 1 -2.29818 -1.861 19.9938 -0.00286531 0.00187896 -0.0067978 3
188 1 -0.1192 -3.0382 19.9097 -0.00113875 -3.04846e-05 -0.00454872 3
189 1 -0.906838 -1.86056 19.9313 -0.00940007 -0.00579687 -0.00769587 3
190 1 -0.160323 -0.639698 19.9999 -0.0063137 -0.00465906 0.000256511 3
203 1 1.21553 -5.45352 20.003 0.00291564 -0.0081767 0.00602664 3
226 1 3.98788 -5.57509 20.054 0.00170834 -0.000230843 -0.00367415 3
243 1 5.40263 -5.64269 20.2622 0.000982685 0.000882395 -0.00624793 3
254 1 6.17433 -4.43423 20.4025 -0.00260922 -0.00477912 -0.00492476 3
255 1 6.37306 -1.92749 20.0167 0.00475459 0.00643731 0.00473647 3
227 1 3.39198 -4.29519 19.9203 -7.29317e-06 0.00247176 -0.00431998 3
244 1 5.62007 -3.13436 20.0134 -0.0027047 -0.000615444 0.00737822 3
214 1 1.92981 -4.18024 19.8802 -0.000651035 -0.00901931 0.00254222 3
228 1 4.18701 -3.11633 19.8384 -0.0120121 0.00820812 -0.0143385 3
245 1 5.71497 -0.722007 19.7451 0.00526443 0.00670489 -0.00612044 3
229 1 3.52638 -1.91989 19.7827 -0.00145754 -0.00486144 -0.00811431 3
230 1 4.26832 -0.654013 19.6838 0.00254822 -0.000264812 -0.00370636 3
204 1 1.29028 -3.00331 20.0174 0.00453983 -0.00155331 -0.00358677 3
215 1 2.07735 -1.79399 19.8023 -0.00459818 0.0106398 -0.0102062 3
205 1 1.32997 -0.60752 19.8942 0.0013536 0.00440637 -0.0211878 3
267 1 7.54503 -4.41715 20.5195 0.00695928 0.00880239 -0.00421019 3
269 1 7.81109 -1.96846 20.2636 -0.00147308 -0.00309555 0.00853291 3
266 1 8.33324 -5.61197 20.5132 0.000167654 -0.00359315 -0.00981339 3
268 1 8.40188 -3.21929 20.4694 0.00134886 -0.00300931 -0.00118421 3
270 1 8.47386 -0.705785 20.296 0.00898496 -0.00554351 0.00757598 3
283 1 9.83052 -5.64399 20.4323 0.00135714 -0.00760381 -0.00370097 3
284 1 9.80746 -3.16564 20.4302 0.0187508 0.00280878 -0.00758873 3
285 1 9.87443 -0.694873 20.3165 0.000370821 0.0064973 0.0112593 3
294 1 10.5011 -4.38368 20.3388 0.00275104 -0.00706422 0.0004774 3
295 1 10.5381 -1.92521 20.3041 -0.0073783 0.00111538 0.00726333 3
96 1 -10.8936 0.593586 19.7952 -0.00234447 0.00183487 0.0051411 3
97 1 -10.8244 3.06469 19.8977 -0.000334075 0.0118319 -0.00118976 3
98 1 -10.8581 5.51711 19.9022 -0.000414788 0.00140586 0.0022091 3
111 1 -9.46946 0.539427 19.5955 0.000530511 0.00700456 0.0301572 3
112 1 -8.80468 1.81818 19.5866 -0.0061629 0.00607419 -0.00278069 3
113 1 -9.40831 3.05455 19.9052 -0.015066 -0.00252159 -0.000849219 3
114 1 -8.67253 4.2981 19.9267 -0.00194735 0.00126167 0.0119929 3
115 1 -9.34409 5.5017 19.9298 -0.000370844 0.000643773 0.00660913 3
127 1 -7.23544 4.25014 19.921 -0.00986384 -0.00403221 0.00030225 3
126 1 -7.387 1.81913 19.6795 0.00807023 0.00118158 0.019909 3
138 1 -6.48179 5.49217 19.9168 0.00448346 5.48569e-05 -0.00572424 3
195 1 -0.912616 5.5244 19.9174 -0.00887254 -0.00181608 -0.00430039 3
155 1 -5.09749 5.53729 19.866 0.00689861 -0.0034228 0.00499688 3
178 1 -2.31229 5.52154 19.7527 -0.00760846 -0.00317969 0.00334353 3
137 1 -6.61156 3.0212 19.7272 -0.000423021 -0.0039908 0.00724776 3
153 1 -5.19158 3.08957 19.7166 -0.00196733 0.00154608 0.00422888 3
154 1 -4.44573 4.28865 19.8213 -0.00569823 0.0035505 0.000554764 3
136 1 -6.62661 0.586495 19.6096 0.00058942 -0.000655684 0.0240978 3
151 1 -5.16482 0.639093 19.673 0.00888002 0.00152342 0.00571844 3
167 1 -3.01148 4.23955 19.7006 -0.00590718 -0.00280432 0.000669256 3
152 1 -4.45135 1.86053 19.6119 0.00447172 0.0043076 0.0032578 3
177 1 -2.23896 3.04643 19.7088 0.00310966 0.00619626 -0.000939506 3
194 1 -0.198062 4.255 19.844 -0.00298446 0.0011069 0.00406124 3
166 1 -3.0378 1.83616 19.704 0.00416273 0.0145747 -0.0108403 3
176 1 -2.32874 0.649158 19.8956 -0.00423274 0.00945913 -0.00747131 3
193 1 -0.822499 2.99179 19.8623 0.00171652 0.00509431 -0.000825472 3
191 1 -0.815037 0.608798 19.9951 -0.0143978 0.00994505 -0.00745326 3
192 1 -0.0386611 1.78858 20.0383 -0.00881337 -0.00573257 -0.0170417 3
218 1 1.87674 5.4886 19.8457 0.00184809 -0.00799171 0.0017288 3
235 1 3.30925 5.50478 20.0011 0.00261794 0.00038179 0.000799264 3
247 1 5.55452 4.29036 20.0793 0.00383936 -0.00325322 -0.00172121 3
257 1 6.34819 3.04757 20.1629 0.00297795 -0.0106952 0.00443147 3
258 1 6.22662 5.53899 20.181 -0.0028703 0.000962782 -0.00908021 3
234 1 4.14476 4.29629 19.8462 -0.00419605 0.00314552 -0.00369194 3
256 1 6.42051 0.528584 19.7526 0.00537985 -0.00153262 0.000917307 3
246 1 5.7138 1.81385 19.784 -0.00817699 0.00120838 -0.00576017 3
233 1 3.5338 3.07484 19.8996 -0.00268256 -0.00679495 -0.00747008 3
231 1 3.57121 0.551742 19.6153 0.00169519 0.00237999 -0.0226453 3
232 1 4.30531 1.80121 19.7087 0.00610477 0.00257256 -0.00234213 3
207 1 1.24947 4.22852 19.9367 0.00323383 0.00136537 -0.0104485 3
217 1 2.10373 3.05959 19.9907 -0.0017615 0.00401823 -5.36531e-06 3
206 1 1.42076 1.82228 20.0056 -0.00148246 0.00239621 -0.001428 3
216 1 2.08307 0.57223 19.8178 -0.00329199 -0.00498409 -0.0129641 3
275 1 7.66908 5.54799 20.2995 -0.000841024 -0.00837974 -0.0112857 3
273 1 7.72484 3.08941 20.3366 0.0073002 -0.00192141 0.000769244 3
271 1 7.80021 0.562351 20.1906 0.00249081 0.000427498 0.00155016 3
272 1 8.42055 1.8456 20.2236 0.00943443 0.00715092 0.00406432 3
274 1 8.40071 4.33823 20.4986 0.0131588 0.00130512 0.00299596 3
286 1 9.81083 1.81808 20.3169 0.00632024 -0.000541311 -0.00352216 3
287 1 9.81634 4.28457 20.4273 0.00188441 -0.000818073 0.00218997 3
296 1 10.5381 0.579363 20.2035 0.00126566 -0.00574696 -0.0090778 3
297 1 10.5154 3.06675 20.2524 -0.00482631 -0.00190245 -0.00204699 3
298 1 10.5183 5.5351 20.3133 -0.000862875 -0.00249328 -0.00678554 3
99 1 -10.7922 7.95498 19.9507 -0.00539331 -0.00239092 -0.000565439 3
116 1 -8.62686 6.7277 19.9368 0.000574805 0.00692088 0.00202766 3
117 1 -9.38631 7.93174 19.9039 0.00800511 0.00636 -0.00200343 3
118 1 -8.70596 9.17496 19.8848 0.00407269 -0.00716 -0.00461678 3
129 1 -7.26203 9.1983 19.9846 0.00181748 -0.00193359 -0.000457489 3
128 1 -7.20174 6.73541 19.9518 0.00609323 0.00465869 0.00191601 3
139 1 -6.55656 7.99011 19.8619 0.00862025 -0.000503349 0.00190649 3
156 1 -4.42971 6.81036 19.982 -0.00749489 0.00230168 0.00775642 3
157 1 -5.0948 8.01902 19.9165 -0.0022689 -0.000160655 -0.00203581 3
158 1 -4.43311 9.23691 20.1005 0.00331118 0.00233011 0.0134291 3
168 1 -3.00137 6.80091 19.9263 -0.00107571 0.000554141 0.0004284 3
169 1 -3.07589 9.26621 19.9803 0.00880524 0.0047461 0.00326804 3
179 1 -2.37933 8.02985 20.0426 0.00141246 -0.00582044 0.00186767 3
196 1 -0.297566 6.72321 20.0213 -0.000820178 0.00654893 -0.001215 3
197 1 -0.959503 7.93858 19.964 -0.0123836 -0.00628717 0.00297463 3
198 1 -0.258133 9.15082 19.9224 0.00325679 0.00735779 0.0029127 3
208 1 1.17387 6.71827 20.0788 -0.00602169 0.00990871 0.00118267 3
209 1 1.13176 9.25448 19.9004 0.00657935 0.00879831 -0.00195235 3
219 1 1.79626 7.99878 20.0312 -0.00252597 0.00450299 0.00716659 3
236 1 3.98018 6.75446 20.1255 0.0143108 -0.00159061 -0.00371177 3
237 1 3.27698 8.02928 20.1203 0.000454073 -0.00187541 0.0110848 3
238 1 4.06497 9.17907 19.9445 0.000979783 -0.00946116 -0.00782097 3
248 1 5.42329 6.77446 20.1816 0.00512688 -0.00585529 -0.00128571 3
249 1 5.46177 9.2585 19.9451 -0.00647201 0.00667565 -0.000543466 3
259 1 6.17394 8.00542 20.0722 0.00156544 0.00437372 -0.00544478 3
277 1 7.63107 7.98497 20.0433 0.00392397 0.00141241 -0.0135492 3
276 1 8.41118 6.79105 20.2092 -0.00602602 -0.0061218 -0.00668968 3
278 1 8.36612 9.24724 19.9988 0.00251976 0.00235903 0.000381407 3
288 1 9.81797 6.78556 20.23 0.00138493 -0.0124421 -0.0016542 3
289 1 9.80314 9.2476 20.05 -0.00426978 0.00433338 0.00233868 3
299 1 10.505 8.01082 19.9842 -0.00129045 -0.00230849 -0.0121988 3
