ITEM: TIMESTEP
19000
ITEM: NUMBER OF ATOMS
168
ITEM: BOX BOUNDS pp pp pp
-1.4715758017245314e+01 1.5057610017245315e+01
-1.2710055654020760e+01 1.2664508654020761e+01
-5.0001035148846022e+01 1.0000103514884636e+02
ITEM: ATOMS id type x y z vx vy vz c_coord
92 1 -10.8722 -9.234 20.1279 -0.00345782 -0.00350281 -0.0111054 3
93 1 -10.8852 -6.80411 20.1044 -0.00170429 0.00350659 -0.00349337 3
103 1 -9.47172 -9.22065 20.0087 -0.00215165 0.00646922 -0.000584436 3
104 1 -8.7287 -7.98247 19.9339 0.00612104 0.00141103 0.000202248 3
105 1 -9.43626 -6.76925 20.0936 0.00368262 -0.0019668 -0.00398718 3
122 1 -7.29511 -7.95541 19.9468 0.00834477 0.00659973 0.000547875 3
132 1 -6.58826 -9.19059 19.8133 0.00882376 -0.00121068 -0.00175789 3
133 1 -6.63143 -6.69807 19.886 -0.00221778 -0.00478947 -0.00636314 3
143 1 -5.16485 -9.2491 19.8061 0.00161231 0.00216412 -0.000589947 3
144 1 -4.49594 -8.01493 19.6379 0.00354755 0.0025835 0.00828618 3
145 1 -5.17461 -6.73412 19.6554 0.0170678 -0.00907641 -0.00158835 3
162 1 -3.07607 -8.06647 19.8808 -0.00382059 -0.00405018 0.00597469 3
172 1 -2.33119 -9.2346 20.048 -0.0018439 -0.00496569 -0.00346515 3
173 1 -2.30691 -6.8524 19.89 -0.010791 -0.00699772 0.000625532 3
183 1 -0.935114 -9.26726 20.1932 0.00168797 -0.00290297 2.05946e-05 3
184 1 -0.167056 -8.03424 20.2659 0.0125095 -0.00130429 0.00218448 3
185 1 -0.890654 -6.82444 20.0807 -0.0181164 -0.000301541 0.00666076 3
202 1 1.26818 -8.07607 20.2065 -8.33515e-05 0.00292678 0.00122808 3
212 1 1.99044 -9.29049 20.1324 0.00486919 -0.0129241 0.0081088 3
213 1 1.92987 -6.80425 20.121 -0.00155502 0.00894934 0.00314381 3
223 1 3.39205 -9.20905 20.0417 0.0037859 0.00954117 -0.0078965 3
224 1 4.12211 -8.04197 19.8345 -0.00897295 0.00298257 -0.00839456 3
225 1 3.40044 -6.79928 19.9433 -0.00977358 0.00262975 -0.0090089 3
242 1 5.53646 -8.01042 19.8372 0.00137197 -0.00350097 -0.00751963 3
252 1 6.21773 -9.22071 19.7977 -0.00170762 -0.00571262 -0.0010748 3
253 1 6.26728 -6.7582 19.8451 -0.0108861 -0.00144848 -0.00819555 3
265 1 7.70286 -6.74067 19.8657 -0.00791033 0.00291776 -0.0145268 3
263 1 7.62772 -9.20252 19.8225 0.00341289 0.00427322 -0.00418703 3
264 1 8.34367 -7.96508 19.887 -0.000553805 0.0081626 -0.0115904 3
282 1 9.76621 -7.99719 19.9449 0.00308647 0.000120959 -0.0151444 3
292 1 10.4985 -9.21629 20.0536 -0.00343037 -0.00822381 -0.00404336 3
293 1 10.484 -6.76033 19.8904 -0.00709268 0.0110057 -0.0118005 3
94 1 -10.8581 -4.31221 20.1739 -0.00422364 -0.00204286 0.000190002 3
95 1 -10.838 -1.84178 20.0695 0.00154439 0.00570326 0.00608495 3
106 1 -8.80081 -5.58151 20.3192 -0.00300398 0.00318914 0.00153632 3
107 1 -9.41484 -4.34486 20.2899 -0.00730856 -0.00448095 0.00760898 3
108 1 -8.66008 -3.11205 20.2262 -0.00116686 -0.00608042 0.00657336 3
109 1 -9.38911 -1.93981 19.93 0.00178783 0.00494323 0.0150232 3
110 1 -8.67828 -0.693673 19.6495 0.00632184 -0.00283265 0.0263789 3
123 1 -7.33717 -5.49953 20.2207 -0.00158608 0.00235714 0.00360088 3
125 1 -7.26068 -0.63167 19.6467 0.00834861 -0.00155347 0.0205443 3
124 1 -7.21251 -3.10296 20.1061 -0.000481464 0.00333325 0.0068937 3
186 1 -0.167051 -5.59339 20.0251 -0.0129091 0.00266963 -0.00102259 3
134 1 -6.44754 -4.30063 20.0827 0.00172882 -0.00441506 0.00211905 3
163 1 -2.87431 -5.55568 19.8254 -0.0108433 -0.00104604 0.010975 3
135 1 -6.49534 -1.87769 19.846 0.00532698 -0.00376731 0.00635102 3
146 1 -4.3698 -5.57087 19.7378 -0.00205701 0.00689774 0.00480077 3
147 1 -5.02089 -4.28685 19.8662 -0.000888174 -0.00422192 0.0103263 3
148 1 -4.25023 -3.06054 19.7773 0.000879712 0.00624357 0.00924306 3
149 1 -5.05025 -1.86435 19.8043 0.00519414 0.00175439 0.00130204 3
164 1 -2.82237 -3.07182 20.0697 -0.00728724 -0.0110179 0.0103952 3
174 1 -2.15667 -4.29498 20.0141 -0.00443222 -0.00125407 0.00936594 3
150 1 -4.37319 -0.618303 19.9568 0.00740697 0.0034255 -0.000698801 3
187 1 -0.764565 -4.33049 20.1973 -0.00448149 -0.000315844 0.000946885 3
165 1 -2.97205 -0.654159 20.2459 0.00453196 -0.004494 -0.00548377 3
175 1 -2.18749 -1.86249 20.3941 0.0076766 0.00487746 -0.00333332 3
188 1 -0.0479229 -3.08527 20.5672 0.0103441 -0.00178323 -0.0165222 3
189 1 -0.814485 -1.875 20.6595 -0.00237948 -0.00391093 -0.0148906 3
190 1 -0.149136 -0.630325 20.8966 0.000950864 -0.00258563 -0.0107331 3
203 1 1.23639 -5.57862 20.1345 0.00427015 0.00804494 0.00109193 3
226 1 4.1244 -5.59534 19.9609 -0.0016162 -0.000842054 -0.0087191 3
243 1 5.55548 -5.51733 19.8945 0.00427886 -0.00262515 -0.00764226 3
254 1 6.20197 -4.28611 20.0144 -0.00107731 -0.00866558 0.00474081 3
255 1 6.1829 -1.8697 20.1447 0.011873 0.00427088 0.0103092 3
227 1 3.37675 -4.37179 20.2205 0.00592791 -0.00378344 0.002191 3
244 1 5.45361 -3.08356 20.2435 0.00176065 0.00120436 0.00721849 3
214 1 1.92186 -4.29375 20.2414 -0.00114285 0.00560334 0.00448662 3
228 1 4.01525 -3.14154 20.3952 -0.000672991 -0.00785485 0.00339995 3
245 1 5.43866 -0.653397 20.1617 0.00760757 0.00535823 -0.00748106 3
229 1 3.38421 -1.88044 20.6525 0.00502896 0.00175559 -0.000134937 3
230 1 4.04081 -0.652123 20.4894 0.00306268 0.000964435 -0.00706599 3
204 1 1.33148 -3.05566 20.5819 0.010654 -0.00531959 -0.00497189 3
215 1 2.0256 -1.78105 20.854 -0.00720592 0.0142041 -0.0103887 3
205 1 1.25519 -0.602037 20.9099 0.00401517 -0.0024104 -0.0111725 3
269 1 7.63381 -1.8364 20.0117 0.00633331 0.00497179 0.0047432 3
267 1 7.65728 -4.22494 20.0311 -0.00330755 -0.000927313 -0.00420726 3
266 1 8.39515 -5.46155 19.981 0.00818269 -0.00460377 -0.00490262 3
268 1 8.36219 -3.03213 20.0179 0.00332453 -0.00345512 0.00707573 3
270 1 8.35751 -0.638728 19.7616 0.00342543 -0.00290554 0.00410038 3
283 1 9.83202 -5.53784 19.9445 -0.00603103 0.00398965 -0.0013811 3
284 1 9.7714 -3.05296 19.9054 0.00158035 -0.00679176 0.00104721 3
285 1 9.79283 -0.673736 19.7554 0.00345494 0.000456086 0.0087174 3
294 1 10.5199 -4.24476 19.9642 0.000466066 0.00523819 0.000150301 3
295 1 10.4992 -1.86529 19.8913 0.00182596 -0.00127176 0.00645675 3
96 1 -10.8153 0.577921 19.9294 0.00213868 -0.00548633 0.000880884 3
97 1 -10.8608 3.0213 20.0955 0.00159915 7.04778e-05 -0.000406323 3
98 1 -10.8064 5.49147 20.1345 -0.00428106 -0.00804589 -0.000267693 3
111 1 -9.41375 0.619328 19.7515 0.00667954 -0.00114592 0.0217621 3
112 1 -8.68858 1.7846 19.9247 -0.00982765 -0.00466001 0.00860529 3
113 1 -9.39253 3.06669 20.1831 -0.00239005 0.00505621 0.0187305 3
114 1 -8.54682 4.21187 20.3127 0.00237589 0.00639672 0.00335611 3
115 1 -9.32689 5.43922 20.2187 0.00303266 -0.00547015 0.00112591 3
126 1 -7.27245 1.86526 19.7552 -0.00346025 -0.00301053 0.0170676 3
127 1 -7.14374 4.22222 20.0438 0.00362457 0.00583349 0.00699969 3
138 1 -6.4786 5.43446 19.8095 0.00185005 0.000359564 -0.000186062 3
195 1 -0.791898 5.48535 19.9292 -0.00344203 0.00676702 0.00438245 3
155 1 -5.06392 5.43807 19.5895 0.00124901 0.00597499 0.00205788 3
178 1 -2.24744 5.54315 19.7672 -0.0104434 0.00516134 0.00696189 3
137 1 -6.40227 2.99081 19.8415 0.00254083 0.00457477 0.00368188 3
153 1 -4.98699 2.98516 19.8013 0.0062253 -0.00910444 0.00693251 3
154 1 -4.27297 4.23796 19.7349 0.00262863 -0.00615569 0.00820026 3
136 1 -6.58155 0.615257 19.613 0.00369738 0.0102493 0.00295091 3
151 1 -5.15318 0.578731 19.791 0.00623412 -0.0129854 0.00491432 3
167 1 -2.86085 4.23075 19.7455 -0.00572258 0.00293227 0.0105787 3
152 1 -4.29739 1.76161 19.7139 0.00695949 -0.00954707 0.00650136 3
177 1 -2.17116 2.97346 20.0051 0.00463219 0.00451277 -0.00331636 3
194 1 -0.0807032 4.26771 20.1324 0.00738038 -0.00492968 -0.0063962 3
166 1 -2.87679 1.76949 20.0388 0.00581296 0.00356088 0.000225932 3
176 1 -2.24128 0.598673 20.4502 0.00462414 -0.00011034 -0.00882187 3
193 1 -0.735086 3.03576 20.2582 0.0135914 0.00764266 -0.00371127 3
191 1 -0.868519 0.611478 20.6965 0.000318413 0.00232508 -0.0174357 3
192 1 -0.121461 1.86461 20.6856 0.00588207 -0.00772607 -0.0052916 3
218 1 2.0199 5.49906 20.0145 0.00396994 0.00087084 -0.00264432 3
235 1 3.43267 5.51802 20.0456 -0.00422839 0.000465601 -0.00780342 3
247 1 5.46134 4.27627 19.9897 -0.00436521 -0.000833909 0.00443616 3
257 1 6.19788 3.02775 20.0078 -0.00737194 -0.000512991 0.00939029 3
258 1 6.29671 5.44354 19.8377 -0.00416507 -0.00170891 -0.00523879 3
234 1 4.0814 4.29973 20.2581 -0.00688174 0.00108275 0.00243311 3
256 1 6.22168 0.5481 20.0771 0.00860664 0.00103233 -0.00388809 3
246 1 5.50277 1.76957 20.2663 0.00692242 0.00213999 -0.00172223 3
233 1 3.40418 3.03667 20.4057 0.00502152 -0.000735678 -0.00515092 3
231 1 3.32434 0.545498 20.6409 0.0114844 0.00387025 -0.00335188 3
232 1 4.08434 1.77371 20.4549 -0.00214861 -0.00441193 -0.00527745 3
207 1 1.32706 4.25623 20.2681 0.00270812 -0.00629277 -0.00848198 3
217 1 1.99872 3.01223 20.4855 -0.00140244 -0.0067905 -0.0128274 3
206 1 1.28225 1.88645 20.8074 0.00928791 0.00146262 -0.00681613 3
273 1 7.61192 2.99478 19.9087 -0.00313357 0.00958383 0.00175724 3
216 1 1.93075 0.643897 20.8767 -0.00120068 -0.00695737 -0.0133345 3
271 1 7.64072 0.579295 19.7481 0.0164024 -0.00667923 -0.00388667 3
275 1 7.70368 5.40938 19.8895 -0.00653223 -0.00510628 -0.00562091 3
272 1 8.3446 1.80982 19.843 0.00991369 0.00030127 0.0121025 3
274 1 8.40324 4.19798 19.9669 -0.00624726 0.000462701 -0.00106433 3
286 1 9.76897 1.80511 19.8692 0.00383502 0.000516051 0.0123745 3
287 1 9.81028 4.22068 20.015 0.0043895 -0.00954739 -0.000495719 3
296 1 10.4992 0.560085 19.8781 0.00770321 0.00666846 0.00645865 3
297 1 10.4949 3.01001 19.9574 -0.00346698 0.00289449 0.00989588 3
298 1 10.5128 5.46106 20.0134 0.00341556 -0.00323128 0.000915694 3
99 1 -10.8259 7.94124 19.8737 -0.0039214 -0.00239882 -0.00453564 3
116 1 -8.7039 6.70196 20.0925 -0.005153 -2.51586e-05 -0.00159346 3
117 1 -9.42078 7.96433 19.9334 0.000942704 0.00215104 -0.00650116 3
118 1 -8.71363 9.18859 19.856 0.00242954 -0.00219703 0.00215928 3
129 1 -7.31935 9.18317 19.8754 -0.00070547 -0.00241946 0.00194232 3
128 1 -7.2561 6.62832 19.9011 0.00986195 0.00232429 -0.000521684 3
139 1 -6.66005 7.9117 19.7702 0.00483906 -0.0136172 -0.00263681 3
156 1 -4.48442 6.72923 19.4578 0.000791355 2.07441e-05 0.00283267 3
157 1 -5.22576 7.94341 19.5597 0.000965925 0.000834729 -0.00504058 3
158 1 -4.51325 9.19345 19.752 0.00350256 0.00343279 0.00147377 3
168 1 -3.03988 6.73497 19.6804 -0.0126305 0.010738 0.00621973 3
169 1 -3.10049 9.18999 19.8807 -0.00858459 0.00276269 0.00494133 3
179 1 -2.3461 8.01274 19.7635 0.00368102 0.00990202 0.000346219 3
196 1 -0.0980962 6.72303 20.023 0.00116686 0.00132965 0.00427455 3
197 1 -0.902209 7.92292 20.0654 -0.00396879 0.00190982 0.00397506 3
198 1 -0.16141 9.14115 20.1244 0.00293943 -0.00233181 0.00931829 3
208 1 1.33163 6.70866 20.0152 -0.00311554 -0.00479743 0.00449902 3
209 1 1.26525 9.17137 20.2006 0.00741764 -0.00652739 0.00188146 3
219 1 2.03481 7.94161 20.1116 0.00519975 -0.000118901 0.00335832 3
236 1 4.21051 6.72161 19.8233 -0.004236 -0.0036739 -0.0174484 3
237 1 3.48236 7.91733 19.915 0.00235654 -0.00268912 -0.00358538 3
238 1 4.11408 9.20688 19.8736 -0.00109108 -0.00466157 -0.00584799 3
248 1 5.60849 6.70999 19.7476 -0.00133157 0.00816635 -0.0153483 3
249 1 5.54888 9.16942 19.8319 -0.0048636 -0.0108998 -0.00809308 3
259 1 6.31898 7.96166 19.7945 0.0018609 0.0101179 -0.00850829 3
277 1 7.71759 7.96307 19.8806 -0.00532869 0.0160915 -0.0112391 3
276 1 8.39451 6.70985 19.943 -0.00590616 7.5355e-05 -0.00660208 3
278 1 8.38576 9.1946 19.8521 0.000679122 0.0015103 -0.00442116 3
288 1 9.81173 6.74651 20.0468 -0.00615953 0.0014606 -0.0104858 3
289 1 9.77878 9.22865 19.8327 3.96745e-05 0.00210772 0.00278305 3
299 1 10.5072 8.03061 20.0102 -0.0069691 0.00443191 -0.0102346 3
