ITEM: TIMESTEP
9500
ITEM: NUMBER OF ATOMS
168
ITEM: BOX BOUNDS pp pp pp
-1.4715758017245314e+01 1.5057610017245315e+01
-1.2710055654020760e+01 1.2664508654020761e+01
-5.0001035148846022e+01 1.0000103514884636e+02
ITEM: ATOMS id type x y z vx vy vz c_coord
92 1 -10.7685 -9.25252 19.9337 -0.00783633 0.000538849 -0.0021945 3
93 1 -10.8395 -6.7841 19.8755 -0.00867081 0.00408099 -0.00107608 3
103 1 -9.36034 -9.17605 19.8087 -0.00112343 -0.00961955 -0.00155462 3
104 1 -8.62502 -7.88312 19.6835 -0.0111682 -0.00731584 0.00090868 3
105 1 -9.355 -6.69748 19.7182 -0.00315924 -0.000426225 0.00245461 3
122 1 -7.19964 -7.86772 19.7555 -0.00935355 0.00044684 0.0102492 3
132 1 -6.60989 -9.17701 19.8776 -0.00153527 0.00550028 0.00992341 3
133 1 -6.53188 -6.62675 20.0311 -0.0118442 -0.00443688 0.0103391 3
143 1 -5.18942 -9.18425 20.0068 -0.012792 0.000272976 0.0111099 3
144 1 -4.44509 -7.98827 20.2919 -0.0276777 -9.56508e-05 0.0135536 3
145 1 -5.13263 -6.70274 20.3422 -0.00777236 0.0146457 0.0156309 3
162 1 -3.03295 -8.00129 20.5134 -0.0141672 -0.00536117 0.0123608 3
172 1 -2.31697 -9.23245 20.3244 0.000270067 0.00120507 0.00938756 3
173 1 -2.41653 -6.72676 20.7119 -0.0200794 0.00419563 0.0110737 3
183 1 -0.907965 -9.21682 20.3374 -0.00630071 -0.00308581 0.00918949 3
184 1 -0.318185 -7.97556 20.6298 0.00472896 -0.0100478 0.0118572 3
185 1 -1.0252 -6.69912 20.8643 -0.00736712 -0.00761671 0.0124019 3
202 1 1.13833 -7.97783 20.6589 0.00799958 -0.00328843 0.0105411 3
212 1 1.89545 -9.19391 20.3128 -0.00197732 -0.00399523 0.00955262 3
213 1 1.87722 -6.79717 20.9514 0.00231011 -0.00343674 0.00788077 3
223 1 3.33588 -9.21294 20.2493 -0.00261159 -0.0059344 0.00952124 3
224 1 4.1055 -7.98351 20.3507 0.00476665 0.00408844 0.0135794 3
225 1 3.33555 -6.83642 20.7536 0.0038341 0.000837816 0.00811526 3
242 1 5.57946 -7.95755 20.0322 0.00494578 0.00381914 0.0132275 3
252 1 6.33025 -9.20788 19.8634 0.00759215 -0.00700823 0.00973917 3
253 1 6.1705 -6.66531 20.0155 -0.00549335 0.000961956 0.0131821 3
263 1 7.75095 -9.11156 19.7319 0.00123846 -0.000426945 0.00392414 3
265 1 7.62131 -6.65744 19.77 -0.00942885 -0.00143434 0.0113565 3
264 1 8.44725 -7.84919 19.6381 0.00447654 -0.006658 0.00521001 3
282 1 9.86683 -7.90018 19.6699 0.00531008 0.00935654 -0.0018977 3
292 1 10.4824 -9.18457 19.8515 0.00528662 -0.0098186 -0.000477253 3
293 1 10.4898 -6.58155 19.6972 -0.000458176 0.00795465 -0.000830425 3
94 1 -10.8517 -4.28521 19.9223 -0.00152176 0.00693749 0.00275329 3
95 1 -10.8114 -1.81215 20.0551 0.00360618 0.00752286 0.00745235 3
106 1 -8.66998 -5.44846 19.8107 -0.00677746 -0.00123669 0.0124708 3
107 1 -9.38315 -4.2341 19.9232 -0.0010686 -0.00242032 0.0133179 3
108 1 -8.68392 -3.03464 20.2418 0.000605519 0.000815123 0.0216521 3
109 1 -9.37817 -1.74359 20.2682 8.33996e-05 -0.00291222 0.0191314 3
110 1 -8.60146 -0.582008 20.479 0.00723735 0.000335909 0.0189768 3
125 1 -7.13863 -0.632292 20.6651 -0.00512075 -0.00568298 0.0161856 3
123 1 -7.23066 -5.38642 20.0532 -0.0157025 -0.00642179 0.00927508 3
124 1 -7.24556 -2.96848 20.5267 0.00315919 0.00481872 0.014198 3
134 1 -6.50149 -4.17537 20.477 -0.00290759 0.000416837 0.0126898 3
135 1 -6.42397 -1.78987 20.7831 -0.00483493 0.00103987 0.0114485 3
146 1 -4.47131 -5.45689 20.6738 -0.00661665 0.00562754 0.0150237 3
147 1 -5.11578 -4.20339 20.8291 -0.00970251 0.00973226 0.0112256 3
148 1 -4.37278 -3.0496 21.2345 -0.00293263 0.00332809 0.010081 3
149 1 -5.04369 -1.81114 21.2397 -0.0156773 0.00713408 0.0121585 3
150 1 -4.35075 -0.646035 21.6739 -0.00515319 -0.00130906 0.0178461 3
163 1 -3.1201 -5.51811 20.8536 -0.00377919 0.00648478 0.0141883 3
164 1 -2.98359 -3.0519 21.5085 -0.00805589 -0.00268845 0.00975927 3
165 1 -2.95854 -0.632345 21.9744 -0.0115477 -0.00916826 0.00556646 3
174 1 -2.4473 -4.30927 21.2703 -0.00552868 0.0112545 0.0156541 3
175 1 -2.22421 -1.8881 21.9435 -0.00796534 -3.91428e-05 0.00466868 3
186 1 -0.306639 -5.4726 21.191 -0.00823895 -0.00405677 0.0109635 3
187 1 -0.990907 -4.26896 21.5025 0.0011564 -0.00706284 0.0108979 3
188 1 -0.122326 -3.16299 21.8338 -0.00566962 -0.00206071 0.00835896 3
189 1 -0.810554 -1.91634 22.0817 -0.00177324 -0.00894512 0.00753316 3
190 1 -0.0705925 -0.69384 22.239 -0.0177486 -0.0111758 0.0143578 3
203 1 1.16315 -5.56762 21.2052 -0.0075662 -0.0065589 0.00932838 3
204 1 1.36849 -3.16769 21.7936 -0.0105255 -0.000626806 0.00672336 3
205 1 1.37862 -0.681494 22.094 -0.0148253 0.00941436 0.0114755 3
214 1 2.02293 -4.40059 21.4377 -0.00498079 0.00255924 0.008272 3
215 1 2.07206 -1.97423 21.9517 -0.00777165 -0.00862131 0.00619111 3
226 1 4.08487 -5.58499 20.8639 -0.00413258 0.0121522 0.00981241 3
227 1 3.44098 -4.4077 21.263 -0.00289499 0.00230674 0.00371049 3
228 1 4.1951 -3.17586 21.39 -0.0065559 -0.00478068 0.00500476 3
229 1 3.50831 -1.97077 21.7561 -0.00263664 0.00237796 0.00556794 3
230 1 4.20369 -0.694942 21.6113 -0.00572127 -1.2209e-07 -0.00155572 3
243 1 5.47065 -5.45179 20.4653 0.006281 -0.00124523 0.0043274 3
244 1 5.58078 -3.04 21.0298 -0.00670974 0.00210411 0.00446978 3
245 1 5.58425 -0.61164 21.2397 -0.00391805 0.00239306 -0.00340646 3
254 1 6.2249 -4.21274 20.5368 -0.00394365 0.0023788 0.0110318 3
255 1 6.28807 -1.76617 20.8699 -0.00557821 -0.00312921 0.00585128 3
269 1 7.60944 -1.75854 20.4132 -0.00198057 0.00261139 0.0101066 3
267 1 7.55463 -4.23811 20.117 -0.00175927 0.0100264 0.0100206 3
266 1 8.2837 -5.40547 19.7977 0.000485128 0.0137664 0.0129918 3
268 1 8.28466 -3.00206 20.1022 -0.000388116 -0.00141222 0.00988695 3
270 1 8.42512 -0.637284 20.242 -0.00933089 0.00371475 0.015993 3
283 1 9.6844 -5.39952 19.6549 -0.00598735 0.0097062 0.00857324 3
284 1 9.71142 -2.98135 19.9758 0.00261671 0.000664128 0.0137292 3
285 1 9.80806 -0.588211 20.1379 -0.0100821 0.00276594 0.0158197 3
294 1 10.4556 -4.20828 19.808 0.0036633 0.00858717 0.0130917 3
295 1 10.5029 -1.83732 20.0756 0.00571032 0.00267908 0.011972 3
96 1 -10.8415 0.61916 20.1416 -0.000429725 -0.00123925 0.00824057 3
97 1 -10.8433 2.9899 20.0578 0.00371264 0.00330067 0.00662557 3
98 1 -10.882 5.48606 19.9206 -0.00256757 -0.00104783 0.00113232 3
111 1 -9.37483 0.635061 20.3692 0.00441741 0.00536828 0.0174687 3
112 1 -8.55853 1.76531 20.4036 -0.00757897 -0.00380454 0.017455 3
113 1 -9.40948 2.90504 20.1939 0.00876319 0.00138236 0.0182935 3
114 1 -8.71426 4.14071 20.1206 0.0012707 -0.000293023 0.0173087 3
115 1 -9.36264 5.42739 19.8783 -0.00446058 0.00240072 0.0093249 3
127 1 -7.29716 4.12436 20.3471 -0.00474118 -0.00232681 0.01067 3
126 1 -7.17282 1.72959 20.5873 -0.0125828 -0.0029167 0.0127525 3
136 1 -6.41705 0.570808 20.9004 -0.00713719 0.00201652 0.0128105 3
137 1 -6.52863 2.93165 20.6123 -0.00463723 -0.00177912 0.00795639 3
138 1 -6.56269 5.35863 20.2514 -0.00745254 0.00260072 0.00621899 3
151 1 -5.07005 0.559029 21.3645 -0.0138489 -0.0006041 0.0144385 3
152 1 -4.42138 1.78282 21.4441 -0.00468757 -0.0111416 0.0160184 3
153 1 -5.14661 2.98929 21.0306 -0.00313726 -0.00924192 0.0136491 3
154 1 -4.48293 4.20983 20.9327 -0.00689877 -0.00667077 0.0139711 3
155 1 -5.17703 5.39203 20.5119 -0.0104417 -0.00420722 0.00981372 3
166 1 -3.02199 1.73755 21.7722 -0.00796521 -0.00651191 0.00995024 3
167 1 -3.11333 4.13471 21.1883 -0.00671664 -0.00765777 0.00961579 3
176 1 -2.26232 0.550106 22.1192 -0.00308779 -0.0071366 0.013283 3
177 1 -2.34519 2.97376 21.5943 -0.00462007 -0.00370653 0.00950342 3
178 1 -2.47085 5.38226 20.9346 -0.00765542 -0.00787468 0.0157269 3
191 1 -0.814568 0.542105 22.274 -0.0037382 0.00076492 0.0107996 3
192 1 -0.119211 1.794 22.1833 -0.00791112 -0.00437071 0.0133115 3
193 1 -0.92282 2.96729 21.8334 -0.00612333 0.00460092 0.0107521 3
194 1 -0.210509 4.21974 21.522 -0.0027897 0.00844229 0.00706341 3
195 1 -1.05528 5.39291 21.2112 -0.0107675 0.0101927 0.00892263 3
206 1 1.34314 1.83506 22.0777 -0.00555385 -0.00367654 0.0120159 3
207 1 1.26118 4.21647 21.5737 -0.00377432 0.00646539 0.00644942 3
216 1 2.08615 0.575651 22.0508 0.000640816 -0.000398766 0.00938177 3
217 1 2.05579 3.06231 21.7488 -0.000859512 -0.00251683 0.00465589 3
218 1 1.95803 5.48311 21.2547 -0.000145591 0.00711846 0.00504396 3
231 1 3.53555 0.571617 21.813 -0.00972587 -0.00343028 0.00573488 3
232 1 4.20139 1.80792 21.5362 -0.0024493 0.00312441 -0.000249349 3
233 1 3.47226 3.0289 21.5254 -0.0108758 -0.000595823 0.00167234 3
234 1 4.18006 4.24263 21.1543 -0.00386748 -0.00495127 0.0060283 3
235 1 3.40519 5.49958 21.0481 -0.00316405 0.00527019 0.00174439 3
246 1 5.61612 1.7733 21.1498 -0.00579278 -0.00436511 0.000928915 3
247 1 5.54907 4.19153 20.7836 0.00476902 0.000894012 0.00615408 3
256 1 6.30073 0.589014 20.8841 -0.0121556 0.00406158 -0.000181895 3
257 1 6.32307 2.96102 20.7325 -0.00167007 -0.00246708 0.00660996 3
258 1 6.20334 5.40736 20.2774 -0.0088456 0.000913717 0.0125052 3
271 1 7.67614 0.557043 20.4254 -0.00612227 -0.00625733 0.0110932 3
273 1 7.68152 2.9053 20.3214 0.00298299 -0.00305627 0.0103124 3
275 1 7.60949 5.36086 19.971 -0.00141209 -0.0023727 0.00546829 3
272 1 8.44503 1.72701 20.1575 -0.00601389 -0.00945296 0.0143779 3
274 1 8.33588 4.14025 20.019 -0.00468502 -0.00914202 0.0133511 3
286 1 9.85186 1.75567 20.139 -0.00443864 -0.0035194 0.0146346 3
287 1 9.73487 4.15405 19.8683 -0.00261921 -0.00522666 0.0119814 3
296 1 10.5634 0.548702 20.2291 0.00428886 -0.00339046 0.0131365 3
297 1 10.5336 2.99662 20.0244 0.0060202 -0.00665494 0.0124125 3
298 1 10.5263 5.35787 19.7737 -0.000242912 -0.00819949 0.00524295 3
99 1 -10.8324 7.9444 19.8664 -0.00121522 -0.00632398 -0.00341581 3
116 1 -8.67206 6.65111 19.7564 -0.00520799 0.00419261 0.00877061 3
117 1 -9.38659 7.91284 19.6887 -0.00147486 -0.00932172 0.00200834 3
118 1 -8.65701 9.17327 19.7509 -0.0129004 0.0026795 0.0025251 3
128 1 -7.21616 6.638 19.9169 -0.00585692 0.00716388 0.00986282 3
129 1 -7.24781 9.15798 19.8378 -0.0112941 0.00789958 0.00863882 3
139 1 -6.5132 7.8835 19.9499 -0.0179317 0.005359 0.0111629 3
156 1 -4.46258 6.6065 20.4573 -0.0203966 -0.00575538 0.0142181 3
157 1 -5.11145 7.87132 20.2322 -0.0172304 -0.00145211 0.0131466 3
158 1 -4.43577 9.15387 20.2428 -0.00435488 -0.00362656 0.00635271 3
168 1 -3.11492 6.59879 20.6448 -0.00419231 0.00554722 0.0136858 3
169 1 -3.02907 9.13632 20.292 -0.00492907 7.25939e-06 0.00736797 3
179 1 -2.3916 7.88817 20.4849 -0.0107014 0.00859854 0.0120978 3
196 1 -0.306461 6.59452 20.938 -0.00221793 0.00327207 0.0154591 3
197 1 -0.969243 7.88234 20.526 -0.00746024 0.00346117 0.00868451 3
198 1 -0.25708 9.13268 20.2519 0.00303274 -0.000206308 0.00342355 3
208 1 1.14737 6.65052 20.9876 -0.00256441 0.0121133 0.00863314 3
209 1 1.16712 9.19019 20.3158 -0.00151347 0.00108072 0.00542381 3
219 1 1.79972 7.9126 20.6316 0.00402236 0.0047304 0.00933426 3
236 1 4.06971 6.74254 20.5916 -0.00432347 0.00176685 0.00995135 3
237 1 3.28015 7.96937 20.4579 0.0021804 0.000471811 0.0150357 3
238 1 4.07434 9.1384 20.1818 0.00160168 -0.000375008 0.00938961 3
248 1 5.53487 6.67417 20.2464 0.0014343 0.000693758 0.0146356 3
249 1 5.51593 9.08952 20.0706 0.0101341 -0.00688876 0.00633467 3
259 1 6.31325 7.87259 19.9747 -0.00300293 -0.010266 0.0143539 3
277 1 7.78964 7.83442 19.7426 -0.00241495 -0.00124913 0.00986838 3
276 1 8.43776 6.52959 19.7089 -0.00291469 -0.00440716 0.0109499 3
278 1 8.40418 9.1063 19.7448 0.00223447 -0.000680145 0.00444598 3
288 1 9.8561 6.54438 19.6336 -0.00690923 -0.00799705 0.0033016 3
289 1 9.83097 9.14809 19.7347 0.00649817 0.00710049 -0.00075175 3
299 1 10.5231 7.88713 19.7001 0.00721084 0.00187341 -0.000865226 3
