ITEM: TIMESTEP
27500
ITEM: NUMBER OF ATOMS
168
ITEM: BOX BOUNDS pp pp pp
-1.4715758017245314e+01 1.5057610017245315e+01
-1.2710055654020760e+01 1.2664508654020761e+01
-5.0001035148846022e+01 1.0000103514884636e+02
ITEM: ATOMS id type x y z vx vy vz c_coord
92 1 -10.8523 -9.22261 19.9286 0.00171244 -0.00305963 0.0025994 3
93 1 -10.8803 -6.76403 19.8762 -0.00678919 -0.00945682 0.00993338 3
103 1 -9.44246 -9.22043 19.9155 0.00555931 -0.00158139 -0.00138834 3
104 1 -8.76866 -7.96792 19.882 -0.00274969 -0.00795189 0.00769869 3
105 1 -9.44865 -6.77545 19.7343 0.00792619 -0.00545971 0.00646247 3
122 1 -7.33192 -7.95554 19.9513 -0.00157226 0.00592051 0.00793437 3
132 1 -6.61217 -9.22809 19.9834 -0.00760284 -0.00822924 0.000905776 3
133 1 -6.62385 -6.72304 19.6982 0.0011349 -0.00431902 0.000978362 3
143 1 -5.21373 -9.23562 20.0239 -0.0143278 0.000501573 0.00707391 3
144 1 -4.57274 -8.02406 19.7545 -0.0010055 0.0005102 -0.000994504 3
145 1 -5.21009 -6.71886 19.6215 -0.00456277 0.00337249 0.004085 3
162 1 -3.1338 -8.00881 19.7177 -0.00596673 -0.00490619 -0.00162517 3
172 1 -2.37797 -9.22613 19.8114 0.00772202 -0.00151514 7.58657e-05 3
173 1 -2.41746 -6.77464 19.5432 -0.00642917 -0.00368888 -0.000703569 3
183 1 -0.941344 -9.23847 19.8143 -0.00233962 0.00119875 -0.00688816 3
184 1 -0.231891 -8.01703 19.6377 -0.0012026 0.000492546 -0.00493134 3
185 1 -0.977484 -6.79499 19.7071 -0.0168044 -0.0104897 -0.00861178 3
202 1 1.22068 -8.06115 19.5003 -0.00306524 0.000132583 -0.010964 3
212 1 1.94303 -9.3157 19.599 0.00105342 -0.00397794 -0.00467469 3
213 1 1.95344 -6.86154 19.5159 -0.0109719 -0.00463005 -0.00212967 3
223 1 3.36518 -9.30417 19.6404 -0.000758921 -0.00198119 0.000479982 3
224 1 4.14628 -8.07518 19.589 -0.013933 0.00501575 -0.00445772 3
225 1 3.39934 -6.85175 19.5251 -0.00362584 0.000245621 0.00853847 3
242 1 5.58337 -8.03827 19.685 -0.00154981 0.00659884 0.00261106 3
252 1 6.28912 -9.25216 19.9369 -0.0048254 0.00459111 0.00562269 3
253 1 6.30079 -6.74044 19.7409 0.00604358 -0.00498971 0.0157945 3
263 1 7.68032 -9.20383 19.9558 -0.00309563 -0.00840856 0.00207265 3
265 1 7.73067 -6.69464 19.8024 0.00253542 -0.00313303 0.0109934 3
264 1 8.41056 -7.96819 19.9634 0.0065467 0.00666423 0.0140461 3
282 1 9.80703 -8.03644 19.9895 0.00309557 0.00429596 0.0117553 3
292 1 10.558 -9.30248 19.8885 0.00147669 -4.81938e-05 -0.00200443 3
293 1 10.4922 -6.82467 20.089 0.00243936 0.00870435 0.0118803 3
94 1 -10.825 -4.29123 19.8255 -0.00328423 0.00467804 0.00584838 3
95 1 -10.8925 -1.88317 19.8603 -0.00337557 0.00507159 -0.00242133 3
106 1 -8.76473 -5.62461 19.3893 -0.0130199 0.00338896 9.15164e-05 3
107 1 -9.47692 -4.31788 19.4025 -0.00571928 -0.00568351 -0.00197479 3
108 1 -8.8008 -3.08064 19.277 0.0108887 0.00472578 0.00152972 3
109 1 -9.48769 -1.87393 19.6435 0.00080247 -0.0110369 0.00047065 3
110 1 -8.73942 -0.63248 19.5212 -0.00659643 0.00214719 -0.00716679 3
125 1 -7.35717 -0.604721 19.2119 0.0114095 0.0013264 -0.0132562 3
123 1 -7.36255 -5.51827 19.4201 -0.00281141 0.00241455 -0.00435581 3
124 1 -7.3832 -3.02067 19.0873 0.00934261 0.0107037 -0.00336543 3
186 1 -0.194406 -5.6122 19.7186 0.00690436 -0.00763791 -0.0177514 3
134 1 -6.65332 -4.27773 19.1786 -0.00337949 0.00465859 -0.000455003 3
163 1 -3.11373 -5.54918 19.5554 -0.00477 -0.00542513 0.000494039 3
135 1 -6.6231 -1.80857 19.0437 0.00369744 -0.0147537 0.00341123 3
146 1 -4.53271 -5.44621 19.5358 -0.00212669 0.000333216 0.00340537 3
147 1 -5.20999 -4.16908 19.2913 -0.00408515 -0.00218717 0.00146416 3
148 1 -4.41255 -2.98919 19.3264 0.00838585 -0.0184417 0.00785066 3
149 1 -5.18919 -1.78749 19.2286 0.00640527 0.00441092 -0.00648506 3
164 1 -2.99799 -3.06342 19.5827 0.0101297 -0.00381951 -0.00174463 3
174 1 -2.34507 -4.3575 19.6964 0.0025944 0.000159088 -0.00804494 3
150 1 -4.40454 -0.6366 19.4176 -0.00860729 -0.00528927 -0.0167989 3
187 1 -0.906339 -4.37918 19.7979 0.00117419 -0.00589053 -0.0061899 3
165 1 -2.96328 -0.593446 19.8118 -0.00251722 0.00204435 -0.00906676 3
175 1 -2.28405 -1.85725 19.8189 0.00272154 -0.00296506 -0.00815154 3
188 1 -0.184782 -3.16048 19.9531 0.00161663 -0.00462563 0.00511183 3
189 1 -0.921433 -1.90028 20.0157 0.00442816 -0.000645956 -0.00367625 3
190 1 -0.275567 -0.625274 20.1532 0.000172275 -0.0016192 0.00557863 3
203 1 1.23872 -5.60285 19.5803 -0.0034221 -0.00705079 -0.00910409 3
226 1 4.06736 -5.57269 19.6219 -0.00114749 0.00905237 0.0123009 3
243 1 5.48361 -5.52206 19.7568 -0.00369664 0.00416959 -0.000516869 3
254 1 6.19854 -4.29251 19.7485 0.000346953 0.00152046 0.00409151 3
255 1 6.19434 -1.8287 19.9145 -0.00847143 0.0055946 -0.00110491 3
227 1 3.36337 -4.32211 19.8179 -0.0042961 -4.95974e-05 0.00579067 3
244 1 5.41626 -3.083 19.8399 -0.00392061 0.00288712 0.00552833 3
214 1 1.94281 -4.38654 19.8526 0.000185824 0.00236219 -0.00492391 3
228 1 4.00104 -3.06925 19.9717 0.00597764 0.00306732 0.0111486 3
245 1 5.41499 -0.655 19.8904 -0.000442574 0.000886589 -0.0067783 3
229 1 3.27144 -1.83078 19.9845 -0.000616491 -0.00045975 0.0020695 3
230 1 3.93096 -0.60232 19.7784 -0.00173988 -0.000925663 -0.00496714 3
204 1 1.20438 -3.13769 19.9018 -0.000722387 0.0103829 0.00451313 3
215 1 1.86186 -1.86137 19.9423 0.00906233 -0.00236969 -0.00609519 3
205 1 1.15398 -0.627103 20.0109 -0.010396 0.00596306 0.0043846 3
269 1 7.59431 -1.77417 20.0296 0.00442828 0.00215658 0.00471377 3
267 1 7.64915 -4.22677 19.7875 -0.00326724 -0.00637755 0.00758468 3
266 1 8.41261 -5.44828 19.9131 0.00294527 -0.00930936 0.0149916 3
268 1 8.3459 -3.01739 19.9111 -0.00439406 0.00258257 0.00623765 3
270 1 8.2689 -0.645257 20.4277 -0.00569881 0.000144317 0.00688933 3
283 1 9.81225 -5.56493 20.0265 0.00190517 0.00112826 0.0207862 3
284 1 9.78062 -3.10085 20.0691 -0.00097998 0.000991675 0.00420507 3
285 1 9.73049 -0.627825 20.42 -0.0109829 0.00900054 0.00939788 3
294 1 10.5076 -4.31294 19.9312 0.00687709 0.000884826 0.0134877 3
295 1 10.4687 -1.82687 20.1908 -0.00635782 -0.000872138 0.010161 3
96 1 -10.8699 0.580723 19.9285 0.00501143 0.00474533 -0.00535804 3
97 1 -10.8853 3.06308 19.9691 -0.00207791 -0.00157126 -0.00479895 3
98 1 -10.8462 5.49003 19.9452 0.00409514 -0.0012314 0.000709159 3
111 1 -9.38969 0.629644 19.7654 0.0100828 -0.00325443 0.000550173 3
112 1 -8.78058 1.85115 19.3154 0.00632058 -0.00287886 -0.00436439 3
113 1 -9.46878 3.07028 19.5824 -0.00633836 -0.00181708 0.000531154 3
114 1 -8.75886 4.30908 19.4716 0.00418692 0.00122197 0.00849499 3
115 1 -9.46825 5.52665 19.8126 0.00604085 -0.00817729 0.000282326 3
126 1 -7.33379 1.81989 19.1295 0.00479582 -0.00103081 -0.00374475 3
127 1 -7.35171 4.20846 19.3266 0.00486849 -0.00563527 0.00411469 3
138 1 -6.62867 5.44306 19.456 -0.000834529 -0.00247391 -0.0040134 3
195 1 -1.03301 5.5014 19.9327 -0.0096534 0.00434601 -0.00776703 3
155 1 -5.2542 5.42634 19.5048 0.00194523 0.00373653 -0.0048065 3
178 1 -2.4436 5.49987 19.8508 0.00822212 0.0111952 -0.0109802 3
137 1 -6.57985 2.96489 19.136 0.0190889 0.0142814 -0.00319687 3
153 1 -5.13095 2.98848 19.2928 0.00574759 0.000301556 -0.00312542 3
154 1 -4.48685 4.22177 19.4669 -0.00103541 0.0102308 0.00685424 3
136 1 -6.55153 0.587473 19.1432 0.00815455 -0.00133644 -0.00805563 3
151 1 -5.12544 0.581106 19.2564 0.00119905 -6.28191e-05 -0.0104361 3
167 1 -3.13126 4.20881 19.7959 0.00899168 -0.00162577 1.15987e-05 3
152 1 -4.38881 1.83291 19.3725 0.00293506 0.00178984 0.00293913 3
177 1 -2.32374 3.0818 20 0.000769574 0.00237778 -0.00528449 3
194 1 -0.188203 4.35261 20.0684 -0.000547053 -0.00060271 -0.00547072 3
166 1 -3.01793 1.87931 19.7571 0.000102384 0.000214853 -0.0072411 3
176 1 -2.29788 0.666163 19.9133 0.00185257 0.0103774 -0.000383925 3
193 1 -0.895225 3.13044 20.0573 0.00592409 0.00320517 -0.00487445 3
191 1 -0.875375 0.670892 20.1162 0.00350411 0.00303397 0.0101187 3
192 1 -0.145022 1.93155 20.066 -0.00226401 -0.00613394 -0.00280057 3
218 1 1.9776 5.56814 19.7953 -0.00133316 -0.00664533 -0.00508747 3
235 1 3.41568 5.56519 19.8046 -0.00395759 0.00231426 0.00746614 3
247 1 5.5195 4.27013 19.8931 -0.00366766 -0.0053498 0.00594384 3
257 1 6.19937 2.99801 19.8816 -0.00398809 0.00660281 0.00772781 3
258 1 6.27545 5.5172 19.9102 -0.00519382 -0.00260007 0.0130401 3
234 1 4.10199 4.29314 19.9612 -0.00206393 -0.00678354 0.00172907 3
256 1 6.11836 0.595756 20.0292 0.00311275 -0.00178792 -0.00207497 3
246 1 5.42884 1.77446 19.923 -0.00214208 -0.00326142 -0.00365692 3
233 1 3.38308 3.11036 20.1916 0.00359236 -0.0104516 0.00205106 3
231 1 3.22604 0.635282 19.8647 0.004601 0.00545596 0.00437436 3
232 1 3.9879 1.83826 20.0239 -0.0009037 -0.00444088 0.00197172 3
207 1 1.23497 4.33492 20.0406 0.000179259 0.00678505 -0.00166869 3
217 1 1.96884 3.11418 20.2766 0.00360507 -0.00368795 0.000635138 3
206 1 1.25998 1.91563 20.1183 0.00649398 0.00307729 0.00231842 3
216 1 1.85991 0.61085 20.0736 0.0057536 -0.00259881 -0.000399209 3
275 1 7.69359 5.46554 20.0446 -0.00929562 0.00365775 0.0147901 3
271 1 7.51248 0.520036 20.3207 0.00676153 -0.00118505 0.00386262 3
273 1 7.61886 3.00731 19.9964 0.00420512 -0.00347956 0.0115668 3
272 1 8.30098 1.78179 20.2491 0.00319978 0.0093302 -0.000316169 3
274 1 8.35223 4.25437 20.1634 -0.00686462 0.00217718 0.0212584 3
286 1 9.74753 1.81358 20.2192 -0.00261385 -0.00408419 -0.00342226 3
287 1 9.74755 4.26123 20.1385 0.00181453 0.0122347 0.0131117 3
296 1 10.4823 0.590479 20.2957 -0.000694048 0.00588348 0.00557961 3
297 1 10.5318 3.07205 20.1358 -0.000471624 0.00512493 0.00888583 3
298 1 10.4905 5.51023 20.0896 -0.00401364 0.00518425 0.00831417 3
99 1 -10.8745 7.96136 20.009 -0.00961341 -0.00124218 0.0048751 3
116 1 -8.77182 6.77731 19.7491 0.00109181 0.00705728 0.00655735 3
117 1 -9.4476 7.98954 19.9706 -0.00605038 0.00879993 0.00201844 3
118 1 -8.76029 9.21701 19.9633 -0.00470893 0.00235835 -0.00173731 3
129 1 -7.30499 9.23865 19.9776 0.00687435 0.00839774 0.00287624 3
128 1 -7.34591 6.69153 19.6889 0.00341614 -0.00208411 0.00585719 3
139 1 -6.70593 7.95636 19.8737 0.00412413 0.00151903 0.00826879 3
156 1 -4.63071 6.65849 19.7043 2.28539e-05 0.000503601 -0.00790022 3
157 1 -5.26796 7.91138 19.9506 -0.0062945 0.0025077 0.00482893 3
158 1 -4.5061 9.15181 19.9364 -0.00178215 0.00463331 0.00270335 3
168 1 -3.17681 6.71614 19.6882 -0.0143413 0.00764703 -0.00446791 3
169 1 -3.1002 9.20035 19.9324 -0.0126293 0.00539772 -0.00559034 3
179 1 -2.41431 7.94961 19.7712 -0.00796975 -0.000727157 -0.00698476 3
196 1 -0.192747 6.66399 19.6876 -0.0079122 -0.00322269 -0.00641099 3
197 1 -0.929066 7.9165 19.7139 -0.0137757 0.00898781 -0.00494287 3
198 1 -0.196634 9.13903 19.8115 -0.00131908 -0.00380148 -0.00958998 3
208 1 1.226 6.70972 19.665 0.0030584 -0.00150912 -0.0031271 3
209 1 1.25719 9.16407 19.6762 -0.0045399 -0.00687953 -0.00896301 3
219 1 1.96469 7.97331 19.5812 -0.00516657 -0.00282352 -0.00895493 3
236 1 4.16982 6.69561 19.6937 0.00167034 0.00186424 -0.000993538 3
237 1 3.45007 7.9696 19.6373 -0.0139302 -0.000825137 0.00225656 3
238 1 4.13968 9.13614 19.8113 -0.0087318 0.00271409 -0.00131646 3
248 1 5.59291 6.72215 19.817 -0.00217362 -0.0018988 0.00374858 3
249 1 5.54184 9.11045 19.9632 -0.0049249 -0.000706267 0.000145266 3
259 1 6.32464 7.93173 19.9333 0.00784345 0.00249934 0.00941057 3
277 1 7.74786 7.96134 19.9931 0.00829666 0.00844123 0.00439825 3
276 1 8.40355 6.73668 20.0488 -0.0073833 0.000972391 0.0137807 3
278 1 8.38835 9.21039 19.9915 0.00984651 -0.00141783 -0.00400932 3
288 1 9.84537 6.74381 20.0835 0.0125672 0.00734219 0.0209013 3
289 1 9.7915 9.18066 20.0241 0.00374164 -0.00395961 0.000893265 3
299 1 10.5097 8.00476 20.0505 -0.00902979 0.00520439 0.00865178 3
