ITEM: TIMESTEP
20800
ITEM: NUMBER OF ATOMS
168
ITEM: BOX BOUNDS pp pp pp
-1.4715758017245314e+01 1.5057610017245315e+01
-1.2710055654020760e+01 1.2664508654020761e+01
-5.0001035148846022e+01 1.0000103514884636e+02
ITEM: ATOMS id type x y z vx vy vz c_coord
92 1 -10.8035 -9.21749 19.9987 0.000536118 0.00435219 -0.00661165 3
93 1 -10.8236 -6.7359 19.829 0.0027689 0.00433413 -0.012492 3
103 1 -9.40468 -9.18462 20.0457 0.0112575 -0.00210311 -0.000992681 3
104 1 -8.65224 -7.95567 19.9462 0.00692342 0.00269694 0.00752801 3
105 1 -9.31007 -6.73726 19.7254 0.00278023 0.00186993 0.000974537 3
122 1 -7.20332 -7.94339 20.079 0.00509231 -0.000608852 0.0028873 3
132 1 -6.51544 -9.22826 20.1454 0.00649203 -0.0090134 -0.00385405 3
133 1 -6.56076 -6.71781 20.3087 -0.00104358 0.000391599 0.00177951 3
143 1 -5.17658 -9.2239 20.1354 0.00643063 -0.00325359 0.0086215 3
144 1 -4.45377 -8.00561 20.3732 -0.00189544 -0.00330609 0.00361694 3
145 1 -5.11862 -6.75357 20.5074 0.00193681 -0.0148976 0.00904694 3
162 1 -3.05176 -7.95625 20.2981 0.0143449 -0.00429211 0.00411349 3
172 1 -2.37221 -9.22117 20.1504 0.00762802 0.0035228 0.00571125 3
173 1 -2.29982 -6.72808 20.4569 0.00633485 0.0131469 0.00377242 3
183 1 -0.957417 -9.2152 20.0034 0.00725681 -0.00151757 0.00167024 3
184 1 -0.243742 -7.99641 19.941 -0.00317081 0.00163385 0.00436945 3
185 1 -0.896346 -6.69941 20.1841 0.00268765 -0.00110168 -0.00460966 3
202 1 1.18294 -8.0077 19.9366 -0.00363471 0.00346706 0.0175398 3
212 1 1.96385 -9.21551 19.8166 0.00351863 0.00022388 -0.000380377 3
213 1 2.13974 -6.82718 19.9345 0.00345081 -0.000866467 -0.00695338 3
223 1 3.39592 -9.20789 19.7849 0.00074308 0.00425278 0.00547607 3
224 1 4.21045 -8.0411 19.8918 -0.00551159 0.00150849 0.0031876 3
225 1 3.54615 -6.84041 20.0357 -0.0136112 0.00335098 -0.0018267 3
242 1 5.61033 -8.05739 19.7162 0.0067887 0.00276176 0.00173633 3
252 1 6.30188 -9.27758 19.7368 0.00585083 0.000901581 0.00709614 3
253 1 6.32004 -6.82129 19.7368 0.00215782 0.0064875 0.00854883 3
263 1 7.70682 -9.17779 19.7018 -0.00631866 0.0028183 0.00628663 3
265 1 7.73217 -6.78299 19.6497 -0.00700492 0.00177391 0.0119143 3
264 1 8.49331 -8.02907 19.6346 -0.00599222 0.00640898 0.00583265 3
282 1 9.87166 -7.98512 19.8602 -0.00632643 0.000897759 0.0050973 3
292 1 10.5033 -9.22845 20.0743 0.00168737 0.00365278 -0.000202845 3
293 1 10.5281 -6.72207 19.8254 -0.00314914 0.000701576 0.00983317 3
94 1 -10.8077 -4.31741 19.9105 -0.000433425 -0.00166221 0.00412362 3
95 1 -10.8338 -1.87035 20.0353 -0.00047229 0.00311904 -0.0084724 3
106 1 -8.64246 -5.46689 19.7991 0.00143912 0.00898837 0.00739585 3
107 1 -9.4031 -4.24539 19.8932 0.00141347 0.00758359 -0.00232931 3
108 1 -8.78144 -3.02557 20.1888 -0.00256428 0.00526812 0.00441655 3
109 1 -9.45875 -1.78913 20.3026 0.0074665 -0.0013542 -0.00692173 3
110 1 -8.80049 -0.574202 20.6857 0.0086088 0.00949558 -0.00428486 3
123 1 -7.17772 -5.45167 20.0932 -0.00191057 0.00214859 0.00866334 3
125 1 -7.40815 -0.634982 20.9192 0.00617837 -0.00137735 -0.000494461 3
124 1 -7.37298 -3.00775 20.5023 -0.00232227 0.000478618 0.00471144 3
186 1 -0.0419794 -5.56753 20.3013 -0.00517508 0.00474281 -0.00491018 3
134 1 -6.56057 -4.23348 20.4265 0.0013116 -0.00729246 0.00754414 3
163 1 -3.02232 -5.51489 20.5379 -0.00551166 0.00609015 0.00273687 3
135 1 -6.69068 -1.85551 20.858 -0.000799979 0.00712043 -0.00110932 3
146 1 -4.42076 -5.5143 20.4822 0.000727221 0.00481195 -0.00376729 3
147 1 -5.15066 -4.27864 20.4075 -0.00224886 0.00362563 0.00735317 3
148 1 -4.47759 -3.00491 20.44 -0.00327255 -0.00663689 0.00764162 3
149 1 -5.26271 -1.86713 20.6928 0.00204709 0.00435568 0.00908176 3
164 1 -3.07677 -3.12313 20.2313 -0.00534885 -0.00688337 0.00678361 3
174 1 -2.26724 -4.28619 20.492 -0.00806041 0.000565348 -0.00290651 3
150 1 -4.5118 -0.64452 20.5975 0.00395958 -0.00609505 0.0110893 3
187 1 -0.837116 -4.33777 20.3333 -0.0100674 0.00159333 -0.00680785 3
165 1 -3.08238 -0.661246 20.2354 0.00610996 0.000534535 0.00706091 3
175 1 -2.36487 -1.88968 20.0691 -0.00671462 -5.31217e-05 0.00867805 3
188 1 -0.210097 -3.10978 20.1692 -0.00246626 -0.0113903 -0.00587349 3
189 1 -0.921413 -1.86432 19.9057 -0.00366318 -0.00395331 -0.00745432 3
190 1 -0.220482 -0.70494 19.5508 -0.00299651 0.00156411 -0.0054853 3
203 1 1.40483 -5.59233 20.0408 0.00122247 -0.00326987 -0.00461381 3
226 1 4.19846 -5.54854 20.0106 -0.00338528 0.00442868 -0.00384051 3
243 1 5.59522 -5.62151 19.8888 -0.0005102 0.0026281 0.000261783 3
254 1 6.18668 -4.29694 19.759 -0.00459204 0.011021 -0.00427772 3
255 1 6.27296 -1.82238 20.2549 -0.000997095 0.00884082 -0.000100798 3
227 1 3.48647 -4.31789 20.0406 -0.00157833 0.00107222 -0.00586347 3
244 1 5.52672 -3.05196 19.9052 0.00254526 -0.00349165 -0.00333552 3
214 1 2.04315 -4.31558 20.1415 0.00151882 0.00598997 -0.00269555 3
228 1 4.13417 -3.04379 19.9737 -0.00156952 0.00107846 -0.00820443 3
245 1 5.50312 -0.617031 20.4047 -0.00152348 0.000171779 0.004527 3
229 1 3.42515 -1.8177 19.9114 -0.0046467 -0.00040747 -0.0151192 3
230 1 4.12089 -0.598824 20.0132 -0.00695694 0.00355752 -0.0118345 3
204 1 1.24726 -3.11036 20.0825 -0.00763103 0.00159565 -0.00707866 3
215 1 2.01858 -1.89866 19.8475 -0.0142406 0.00187841 -0.00861559 3
205 1 1.29746 -0.714679 19.5387 -0.00474374 -0.00120432 -0.00937536 3
269 1 7.67428 -1.8596 20.4066 -0.00318748 0.00684597 0.0015019 3
267 1 7.59478 -4.27159 19.7407 0.00280565 0.00349048 0.0018484 3
266 1 8.41743 -5.50406 19.6208 -0.000443022 -0.00406293 0.00228729 3
268 1 8.34468 -3.08934 20.047 0.00153278 0.00739242 -0.00332398 3
270 1 8.36783 -0.586935 20.5851 -0.0019178 -0.000337598 0.00710499 3
283 1 9.78651 -5.4651 19.7191 -0.00228111 0.00680375 0.00059765 3
284 1 9.76102 -3.00356 20.0518 0.00579632 0.00963119 0.000970989 3
285 1 9.77737 -0.576794 20.378 -0.00231847 0.0063638 -0.00607759 3
294 1 10.4808 -4.21483 19.8651 0.00408347 0.00364284 -0.000138455 3
295 1 10.5247 -1.77419 20.1777 -0.0063865 -0.00117078 -0.00444237 3
96 1 -10.898 0.590193 20.0558 -0.000438945 -0.00717781 -0.00930172 3
97 1 -10.8334 3.01928 19.9759 0.00179547 0.00631475 0.00843838 3
98 1 -10.8338 5.47849 19.8669 0.000435392 0.00285436 0.00253572 3
111 1 -9.44613 0.627232 20.3668 -0.0031931 -0.00372324 -0.00941728 3
112 1 -8.78179 1.84261 20.5751 0.00166342 -0.00734605 -0.00511526 3
113 1 -9.43329 2.97092 20.0719 0.00103613 -0.00618048 -0.00292796 3
114 1 -8.76539 4.27537 19.9237 -0.00250516 0.00132135 0.00860025 3
115 1 -9.39709 5.51929 19.7721 -0.000486662 5.19103e-05 0.00605361 3
126 1 -7.35311 1.78395 20.6919 0.00478512 0.00250492 -0.00367306 3
127 1 -7.3838 4.18585 20.0213 -0.00348938 -0.0125063 0.00602648 3
138 1 -6.61429 5.38842 20.07 -0.00580926 -0.00136558 0.00972203 3
195 1 -0.880522 5.55017 20.2054 -6.41266e-05 0.00978959 -0.00354837 3
155 1 -5.22948 5.46886 20.3125 -0.0107347 0.00278793 0.00709924 3
178 1 -2.32572 5.45368 20.3429 0.00559608 0.00621624 0.00826686 3
137 1 -6.76193 3.06702 20.5153 0.0040599 -0.0070674 0.00115251 3
153 1 -5.32158 3.02278 20.4666 -0.00851922 0.00155424 0.0160655 3
154 1 -4.51784 4.25014 20.3637 -0.0150141 0.00121863 0.00235294 3
136 1 -6.66848 0.590148 20.8908 0.00559637 -0.0111095 0.00105726 3
151 1 -5.2362 0.568488 20.7604 0.00488526 0.00151301 0.0137009 3
167 1 -3.10944 4.21851 20.3361 -0.00710019 0.00613942 0.00717478 3
152 1 -4.60966 1.78624 20.5617 0.00375954 -0.00323808 0.00905353 3
177 1 -2.39097 2.94321 20.0201 -0.00174407 0.0046188 0.00413438 3
194 1 -0.130442 4.27325 20.1558 -0.0033206 0.00308922 -0.00814539 3
166 1 -3.2078 1.7794 20.0549 -0.00865891 -0.0020135 0.0020183 3
176 1 -2.43667 0.528954 19.7697 0.00587764 0.000155727 -1.55818e-06 3
193 1 -0.894318 3.04829 19.9716 -0.0100704 -0.00150609 -0.00757761 3
191 1 -0.963606 0.556037 19.5491 0.00377257 -0.00504335 -0.00386571 3
192 1 -0.227124 1.80096 19.667 -0.00416533 0.00732745 -0.00707771 3
218 1 2.07142 5.45807 19.8994 -0.00710677 -0.00451812 -0.00135481 3
235 1 3.48799 5.4576 19.7519 0.000395545 -0.00551263 -0.00293752 3
247 1 5.62848 4.25114 19.6278 0.00032124 -0.00646984 0.000589563 3
257 1 6.25652 2.9671 19.9273 -0.000457379 -0.00144546 0.00207303 3
258 1 6.3005 5.48819 19.5563 0.000170835 0.000774292 0.00192646 3
234 1 4.19588 4.23078 19.6495 -0.00205149 0.000487414 -0.00636658 3
256 1 6.19379 0.59078 20.525 0.000352517 0.00429979 -0.00499882 3
246 1 5.48455 1.77329 20.198 -0.00056407 -0.0119332 -0.000660213 3
233 1 3.43205 3.04496 19.6676 -0.00225683 -0.00256173 -0.00348374 3
231 1 3.41614 0.613663 19.7149 -0.00640762 -0.00233116 -0.0159308 3
232 1 4.07762 1.81651 19.8642 -0.00409767 -0.00433523 -0.00406575 3
207 1 1.27619 4.26595 19.9155 -0.0010601 -0.000145908 -0.0119347 3
217 1 1.97646 3.0152 19.7616 -0.00544536 0.00687512 -0.00561997 3
206 1 1.25005 1.79665 19.5741 -0.0068539 -0.0076551 -0.0143592 3
216 1 1.97435 0.544428 19.5604 -0.000906419 -0.00654147 -0.0096932 3
273 1 7.69947 3.00786 20.0557 0.00206326 -0.00254753 -0.00494561 3
271 1 7.62221 0.636865 20.6741 -0.000893636 0.00371484 0.00201587 3
275 1 7.68638 5.49908 19.6761 0.0015255 -0.00751704 0.0020144 3
272 1 8.41442 1.78848 20.3967 0.00485601 -0.00386535 -0.00220695 3
274 1 8.37089 4.25748 19.7322 0.00516191 -0.0137909 -0.00970649 3
286 1 9.78546 1.76499 20.2695 -0.00765148 -0.00740515 0.00126492 3
287 1 9.79361 4.19213 19.8463 0.00225425 -0.00252438 0.00105047 3
296 1 10.522 0.594916 20.1917 -0.00248196 0.000597656 8.45328e-05 3
297 1 10.5127 3.00469 19.9931 -0.00273037 -0.00763349 0.000753933 3
298 1 10.49 5.41367 19.887 0.000426486 0.00708023 0.00351943 3
99 1 -10.8183 7.94328 19.9173 0.000525319 0.00194081 -0.0038361 3
116 1 -8.65564 6.71931 19.8854 0.000535805 -0.00522534 -0.000950729 3
117 1 -9.3858 7.91515 19.8694 0.00518461 0.000122385 -0.00710843 3
118 1 -8.66419 9.16176 20.0039 0.0143303 0.00654362 0.00368158 3
129 1 -7.31255 9.12783 20.064 0.00499384 -0.00156231 0.00795403 3
128 1 -7.22808 6.66695 20.0624 -0.0116239 0.00467414 0.00348018 3
139 1 -6.54167 7.90776 20.1658 0.00757002 -0.00473064 0.00563883 3
156 1 -4.4797 6.65772 20.4164 -0.00295393 -0.000209518 0.00179109 3
157 1 -5.17363 7.89279 20.2957 0.00570815 0.00280522 0.00984537 3
158 1 -4.45714 9.17623 20.2387 0.00537356 0.00727049 0.00237557 3
168 1 -3.05233 6.68118 20.3254 0.00837965 0.00191725 0.00649893 3
169 1 -3.05415 9.18891 20.1745 0.011658 0.00185506 0.00630833 3
179 1 -2.33148 7.95673 20.2466 0.00224203 -0.00337966 0.00441891 3
196 1 -0.159378 6.72955 19.9241 -0.00155002 -0.00446777 -0.00782861 3
197 1 -0.926238 7.97285 19.9567 0.000494925 0.00534898 0.000773642 3
198 1 -0.189195 9.21263 19.9565 -0.00898866 -0.00121706 -0.0031124 3
208 1 1.30489 6.69203 19.8245 0.0126264 0.0108697 -0.000394999 3
209 1 1.25941 9.17858 19.844 0.00507846 -4.85199e-05 0.00492062 3
219 1 1.98767 7.96021 19.7515 0.00328127 0.00411668 0.00183794 3
236 1 4.19082 6.69301 19.7506 -0.00947235 -0.0122116 0.00441795 3
237 1 3.43398 7.91958 19.7745 -0.00917695 0.00649136 0.000368397 3
238 1 4.11586 9.17432 19.8572 -0.00315763 0.00531744 0.00905203 3
248 1 5.61443 6.72365 19.6943 0.00480063 -0.00607571 -0.00198166 3
249 1 5.51712 9.13704 19.8364 0.00285949 -0.00754462 0.00626117 3
259 1 6.36208 7.9672 19.7938 -0.00360518 -0.00565773 0.00229593 3
277 1 7.78754 7.979 19.6485 -0.00748434 -0.0087279 0.0100853 3
276 1 8.47553 6.69142 19.6903 0.00435808 -0.00222685 0.00841351 3
278 1 8.45689 9.24044 19.692 -0.00525742 -0.00949567 0.00747005 3
288 1 9.84709 6.67147 19.7614 -0.00455122 -0.00109531 0.00713469 3
289 1 9.83958 9.20744 19.8188 -0.0060021 -0.00487648 -0.00364157 3
299 1 10.5193 7.95869 19.7594 -0.000945187 0.000109142 -0.00113091 3
