ITEM: TIMESTEP
23000
ITEM: NUMBER OF ATOMS
168
ITEM: BOX BOUNDS pp pp pp
-1.4715758017245314e+01 1.5057610017245315e+01
-1.2710055654020760e+01 1.2664508654020761e+01
-5.0001035148846022e+01 1.0000103514884636e+02
ITEM: ATOMS id type x y z vx vy vz c_coord
92 1 -10.8108 -9.22684 20.145 0.000700186 0.00360434 0.00237657 3
93 1 -10.8511 -6.80733 20.1432 0.00174101 0.00483161 0.00598788 3
103 1 -9.42363 -9.24661 20.2761 -0.00887814 0.0085789 0.00411577 3
104 1 -8.7279 -7.99478 20.5003 -0.00263655 0.0025859 -0.00589202 3
105 1 -9.42462 -6.75567 20.348 0.00107999 -0.00263372 0.000500731 3
122 1 -7.29767 -7.93695 20.5123 0.00238427 -0.00254767 0.00285851 3
132 1 -6.59286 -9.17697 20.1759 -0.00148326 0.00763233 0.0116323 3
133 1 -6.63884 -6.67252 20.6524 -0.00521427 0.000673046 -0.00217482 3
143 1 -5.22235 -9.18933 20.0016 0.00441243 -0.0136654 0.0079677 3
144 1 -4.53529 -7.90625 20.2498 -0.00762005 0.00197312 -0.000757738 3
145 1 -5.2113 -6.67646 20.4941 -0.0022176 0.00686056 0.00998261 3
162 1 -3.06395 -7.9737 20.1891 -0.0102061 0.00285136 0.0011087 3
172 1 -2.37322 -9.16924 19.9431 -0.00804767 0.000770193 0.00151541 3
173 1 -2.37389 -6.79169 20.2713 -0.00159401 -0.00369667 -0.00223688 3
183 1 -0.937969 -9.23451 20.0118 -0.00983429 -0.00752276 -0.0113079 3
184 1 -0.210826 -8.03127 19.9796 -0.00602766 0.00308182 -0.0152205 3
185 1 -0.952529 -6.77639 20.0664 -0.0128306 -0.00671089 -0.00653957 3
202 1 1.25755 -8.05645 19.8734 0.00414607 -0.00692501 -0.0021707 3
212 1 1.98645 -9.22397 20.005 0.00935031 0.00607715 -0.00705241 3
213 1 1.95035 -6.85743 19.812 0.0162135 -0.00688878 -0.0105699 3
223 1 3.40684 -9.20633 20.0751 0.00355713 0.00528407 -0.00285909 3
224 1 4.11913 -8.05353 20.1009 0.00120751 0.00783862 0.00432951 3
225 1 3.34811 -6.82214 20.0115 0.00947492 0.0113536 -0.00148471 3
242 1 5.54222 -7.99513 20.274 0.00827193 0.00371533 -0.00123031 3
252 1 6.1933 -9.2222 20.0173 0.00721489 -0.00637529 -0.000586934 3
253 1 6.22736 -6.74069 20.3861 0.00290897 -0.00128736 0.00322029 3
263 1 7.60324 -9.2104 20.0026 0.00360573 0.0032829 0.00157892 3
265 1 7.66924 -6.7759 20.4005 -0.00349067 0.00342111 0.00308256 3
264 1 8.32267 -8.02744 20.3005 0.00319569 0.00513913 -0.00292128 3
282 1 9.77183 -8.01974 20.2683 -0.000861791 0.0011954 -0.00527724 3
292 1 10.5034 -9.17785 20.0542 -0.00165208 0.000891602 -0.00175672 3
293 1 10.5232 -6.75482 20.2522 0.000681937 -0.00453944 0.00265156 3
94 1 -10.8873 -4.26829 20.0831 0.00147753 -0.00347375 -0.00525319 3
95 1 -10.9161 -1.85549 20.0444 -0.00131599 -0.00287646 0.00132258 3
106 1 -8.76664 -5.49797 20.6055 0.00732541 0.00509285 -0.00136758 3
107 1 -9.51101 -4.34631 20.4821 -0.00294856 1.65746e-05 -0.00655675 3
108 1 -8.83943 -3.06929 20.514 0.00194655 -0.0158073 -0.000285207 3
109 1 -9.49007 -1.82076 20.226 -0.000307849 3.89995e-05 0.00317195 3
110 1 -8.74932 -0.578987 20.1905 0.0014734 0.00276283 -0.00396197 3
123 1 -7.3492 -5.44979 20.8285 0.0107569 -0.00402484 -0.00836686 3
125 1 -7.33068 -0.563226 20.3345 -0.00959491 -0.00699167 0.0123547 3
124 1 -7.38278 -3.03779 20.6527 0.00657939 -0.00427769 -0.00305231 3
186 1 -0.217844 -5.60955 19.7972 0.000135526 0.00135979 0.00165785 3
134 1 -6.58504 -4.20896 20.8388 -0.0060299 -0.00233168 -0.00150443 3
163 1 -3.09297 -5.57275 20.3659 -0.00569439 0.00592204 0.000431948 3
135 1 -6.61736 -1.85526 20.4621 0.00773915 0.000379885 0.00139878 3
146 1 -4.49119 -5.46546 20.5406 0.0066222 -0.00321585 -0.0154093 3
147 1 -5.19552 -4.21362 20.5779 0.00855432 0.000790244 -0.00388899 3
148 1 -4.45417 -3.05506 20.4738 0.00859502 0.00373494 -0.00953168 3
149 1 -5.17 -1.83238 20.4186 -0.00167899 -0.00316805 -0.00565134 3
164 1 -3.03015 -3.06798 20.4244 0.00937871 -0.000457214 -0.0080168 3
174 1 -2.36776 -4.32038 20.3526 -0.00178462 0.00194555 0.00145114 3
150 1 -4.45158 -0.6405 20.4215 -0.00817892 -0.000345267 -0.0143578 3
187 1 -0.970905 -4.37616 19.9276 0.00524183 -0.00127237 -0.000351934 3
165 1 -3.02136 -0.64636 20.4983 -0.00700891 0.00155181 -0.0148485 3
175 1 -2.28453 -1.82497 20.3013 0.00394279 0.00562374 -0.00720893 3
188 1 -0.253111 -3.12982 19.8464 0.00588671 0.00811453 0.00860278 3
189 1 -0.883592 -1.85186 20.0462 0.012956 0.00207891 0.00328744 3
190 1 -0.198477 -0.63109 19.8585 -0.00245109 -0.00130116 0.00843772 3
203 1 1.22104 -5.67472 19.6075 0.00601746 0.00118716 0.00151339 3
226 1 4.03319 -5.6005 19.9732 4.81587e-05 -0.0029899 0.00270817 3
243 1 5.46784 -5.50079 20.2253 0.00756043 0.00528447 0.00331246 3
254 1 6.25479 -4.29887 19.9986 -0.00169496 0.00624237 -0.00267847 3
255 1 6.13913 -1.89705 19.3557 0.016689 0.00118177 -0.0103813 3
227 1 3.32226 -4.41976 19.5694 0.00549545 0.0223213 9.89787e-06 3
244 1 5.50797 -3.16779 19.4948 0.00519063 0.00541548 -0.00381552 3
214 1 1.90001 -4.46458 19.5101 0.00689636 0.00980479 0.00952742 3
228 1 4.04449 -3.1958 19.2994 0.00924543 0.00788168 -9.44468e-05 3
245 1 5.44205 -0.638943 19.1636 0.0137325 -0.00701914 -0.004351 3
229 1 3.2947 -1.97374 19.1969 0.000998946 0.00681677 -0.0112286 3
230 1 3.97955 -0.659286 19.1418 0.00359517 -0.00131936 -0.0131511 3
204 1 1.1306 -3.22969 19.4954 -0.00133942 0.00800614 0.0143557 3
215 1 1.88274 -2.00401 19.4045 -0.000942918 0.00363801 0.00359471 3
205 1 1.19762 -0.697504 19.4692 7.76775e-05 0.00389533 0.00370435 3
269 1 7.60071 -1.8215 19.6225 -0.00159511 0.00406846 -0.00734064 3
267 1 7.71509 -4.25473 20.1804 0.00618262 -0.00867281 -0.00366743 3
266 1 8.40498 -5.54601 20.3456 -0.00183945 -0.0011286 -0.000664291 3
268 1 8.35036 -3.03256 19.9918 -0.000374119 0.0018013 -0.0127158 3
270 1 8.30422 -0.618662 19.3799 0.00090109 -0.00389302 0.00152445 3
283 1 9.8369 -5.53471 20.3878 -0.0011237 -0.000545071 0.00536298 3
284 1 9.80171 -3.05432 20.0483 0.00228472 0.00270199 -0.0120764 3
285 1 9.7498 -0.621758 19.5848 0.00114943 0.00601334 -0.00970988 3
294 1 10.4904 -4.30427 20.2032 -0.00212198 0.00780353 -0.000661013 3
295 1 10.5134 -1.84936 19.8856 0.000746544 0.0101839 -0.00782808 3
96 1 -10.8628 0.544364 20.1118 0.0014302 -0.0047312 0.00231719 3
97 1 -10.8736 3.04698 20.185 0.00399457 0.0037914 -0.00458785 3
98 1 -10.9113 5.47344 20.222 0.00477733 -0.00940692 -0.00243289 3
111 1 -9.43268 0.644551 20.0432 0.00029508 -0.00247771 0.00411054 3
112 1 -8.70481 1.87225 20.2705 -0.000762488 -0.00110897 -0.00145789 3
113 1 -9.47376 3.03548 20.3165 -0.00370675 -0.00653689 -0.00112021 3
114 1 -8.79495 4.23828 20.5654 -0.00270636 0.00319752 0.00420331 3
115 1 -9.47483 5.46435 20.4784 0.00110364 0.00249261 0.000190648 3
126 1 -7.29873 1.86643 20.4224 -0.00854249 0.0103233 0.00743767 3
127 1 -7.37383 4.31293 20.7749 -0.00412057 0.00148346 -0.000354894 3
138 1 -6.59964 5.50027 20.7113 -0.00495312 0.00165337 -0.0108098 3
195 1 -0.975772 5.60153 19.8259 -0.00968082 0.00354055 0.00925255 3
155 1 -5.16757 5.48116 20.5966 -0.00382427 0.00321196 -0.00271686 3
178 1 -2.40973 5.4908 20.1164 -0.000897533 0.0121577 0.000213042 3
137 1 -6.64559 3.07377 20.7338 0.007482 0.00168725 -0.00126663 3
153 1 -5.24713 3.05655 20.5796 0.0186044 0.00101527 -0.00928987 3
154 1 -4.48933 4.22114 20.632 -0.00475705 0.0050906 -0.0124068 3
136 1 -6.5617 0.628456 20.4655 -0.00394218 0.00830367 0.000917427 3
151 1 -5.17799 0.61606 20.5255 -0.0131317 -0.00524054 0.00281502 3
167 1 -3.10377 4.22123 20.3177 0.0124709 -0.000851527 -0.00294749 3
152 1 -4.4712 1.87528 20.5304 -0.00156508 0.00148041 -0.0051637 3
177 1 -2.37244 3.03453 20.2069 0.00674099 -0.00399125 -0.00156346 3
194 1 -0.315157 4.38395 19.8032 0.000124747 -0.00086055 0.0196591 3
166 1 -3.03231 1.79237 20.4602 -0.000347897 0.00113308 -0.00648105 3
176 1 -2.23954 0.603324 20.3064 -0.00484713 -0.00180367 -0.00842981 3
193 1 -0.950704 3.09069 20.0113 0.00614445 0.00229353 0.00407179 3
191 1 -0.851467 0.599833 20.0619 0.00488593 -0.0068562 -0.000151945 3
192 1 -0.177582 1.91139 19.9009 0.00940148 -0.00200188 0.00512188 3
218 1 2.00933 5.59002 19.5644 -0.0030731 -0.00678619 0.00212253 3
235 1 3.48777 5.58025 19.661 0.00659298 -0.00617648 -0.003455 3
247 1 5.57471 4.27579 19.8262 0.00482628 -0.00087407 -2.92824e-05 3
257 1 6.26079 3.05031 19.5609 0.00483294 0.00853414 -0.00412666 3
258 1 6.27622 5.51129 20.1548 0.0070303 -0.00513263 -0.00323944 3
234 1 4.1756 4.33549 19.5663 0.0117166 -0.0165481 0.00478515 3
256 1 6.16074 0.606382 19.2691 0.00886754 -0.00371657 -0.00175301 3
246 1 5.45485 1.86298 19.3146 -0.00267342 -0.00669377 -0.0104487 3
233 1 3.33244 3.1827 19.2089 0.00130916 -0.0123783 0.00540855 3
231 1 3.28956 0.613958 19.1489 0.000215759 -0.00214029 -0.00987531 3
232 1 4.00331 1.91905 19.1378 0.00168034 -0.00882018 -0.00850666 3
207 1 1.14849 4.40895 19.5761 0.00668084 -0.00611129 0.0112081 3
217 1 1.89261 3.14638 19.4703 0.00937682 -0.00376796 0.00644046 3
206 1 1.18464 1.86116 19.4768 0.00728989 0.00281103 0.0108113 3
216 1 1.87505 0.582661 19.3498 0.00855924 -0.00590258 0.00356846 3
271 1 7.59677 0.62071 19.3497 0.00736552 0.00371635 -0.00499302 3
273 1 7.64181 3.02912 19.7534 -0.000855641 -0.00425623 -0.012377 3
275 1 7.66329 5.53347 20.3642 0.00319538 0.00871908 0.00330659 3
272 1 8.3703 1.8017 19.4923 -0.00135651 -0.00745727 -0.0064627 3
274 1 8.31482 4.29388 20.1215 -0.00519709 -0.0062941 -0.00168945 3
286 1 9.78927 1.82487 19.6619 -0.00711026 -0.000238213 -0.00832012 3
287 1 9.77872 4.29356 20.2027 -0.00255343 -0.00683517 0.000758798 3
296 1 10.5181 0.554238 19.6844 0.00303222 0.00283369 -0.000428873 3
297 1 10.4888 3.06504 19.9795 0.00170272 0.00155154 -0.00412082 3
298 1 10.5 5.49941 20.2646 -0.000314955 -0.0127558 0.00197128 3
99 1 -10.8957 7.9385 20.1202 0.0019666 0.00946875 -0.000282486 3
116 1 -8.81119 6.68686 20.5903 8.36418e-05 -0.00891295 -0.00264364 3
117 1 -9.44148 7.89823 20.3662 -0.00705327 0.00241412 -0.00225771 3
118 1 -8.72973 9.19087 20.2682 0.000979268 -0.0104153 0.00959352 3
128 1 -7.31368 6.69348 20.7203 -0.00792146 0.00222119 -0.00034488 3
129 1 -7.32085 9.20693 20.3332 0.0056735 0.00207075 0.00949303 3
139 1 -6.66255 7.9321 20.5196 -0.00815949 -0.00705021 0.00831888 3
156 1 -4.54957 6.70009 20.3225 0.00212649 0.00404493 -0.00673487 3
157 1 -5.25084 7.91968 20.2626 -0.0036335 -0.00602847 0.00607824 3
158 1 -4.52002 9.13387 20.1688 0.00604989 -0.000490899 0.000724643 3
168 1 -3.09492 6.68366 20.2357 -0.00445151 0.00251806 -0.00619424 3
169 1 -3.09532 9.13924 20.0234 -0.00169087 -0.00673206 0.00231114 3
179 1 -2.37724 7.9224 20.0702 -0.00625965 0.000557148 -0.0022082 3
196 1 -0.22136 6.78549 19.7662 0.00526453 -0.00629501 -0.00435972 3
197 1 -0.9703 7.9616 19.8938 -0.0131607 0.00365363 -0.0069724 3
198 1 -0.203387 9.15993 20.0299 -0.00963618 0.00253972 -0.0164626 3
208 1 1.22981 6.77784 19.6284 0.00150969 -0.00626699 0.00150979 3
209 1 1.21857 9.19106 20.0365 -0.0118544 -0.000659378 -0.0118908 3
219 1 1.94354 7.96842 19.9066 0.00925837 -0.003709 -0.0048947 3
236 1 4.18682 6.81024 19.8771 0.00649452 -0.011047 -0.00449885 3
237 1 3.38569 7.98774 19.977 -0.00400272 0.00214046 0.00459285 3
238 1 4.09 9.18843 20.0376 -0.00595696 -0.00650462 0.00167582 3
248 1 5.59033 6.73813 20.1298 0.0138126 -0.00331379 0.0016799 3
249 1 5.52503 9.156 19.9741 -0.00323671 -0.0030195 0.000556851 3
259 1 6.2746 7.9495 20.2127 0.00620849 -0.00234543 0.00982667 3
277 1 7.70758 8.00379 20.2268 0.00234884 -0.000527624 0.0019289 3
276 1 8.39271 6.76844 20.4217 -0.00167012 -0.00419561 0.00138719 3
278 1 8.41851 9.17198 19.9504 0.00353543 0.00516407 -0.00698926 3
288 1 9.78677 6.73027 20.3218 -0.00321036 -0.00639845 -0.000130682 3
289 1 9.83761 9.17897 19.9137 0.00170616 -0.00409553 0.00230719 3
299 1 10.5043 7.94007 19.9575 -0.00859748 0.00278923 -0.00206853 3
