ITEM: TIMESTEP
53900
ITEM: NUMBER OF ATOMS
168
ITEM: BOX BOUNDS pp pp pp
-1.4715758017245314e+01 1.5057610017245315e+01
-1.2710055654020760e+01 1.2664508654020761e+01
-5.0001035148846022e+01 1.0000103514884636e+02
ITEM: ATOMS id type x y z vx vy vz c_coord
92 1 -10.8225 -9.24647 20.0762 0.00756333 -0.00586573 -0.00229898 3
93 1 -10.831 -6.76283 19.9776 -0.00346533 -0.00104397 0.00235728 3
103 1 -9.3739 -9.20225 20.1483 0.00327852 -0.004332 0.00283081 3
104 1 -8.62169 -7.9888 20.1939 0.00285162 -0.00717436 0.0114716 3
105 1 -9.38818 -6.76589 20.1297 -0.00226152 -0.000866659 0.00698166 3
122 1 -7.20083 -7.99653 20.0682 -0.00187088 -0.00504649 0.011397 3
132 1 -6.52354 -9.27602 20.0868 0.00159916 0.00182766 0.000406538 3
133 1 -6.47508 -6.76687 19.8949 0.00931534 -0.00306054 0.00483009 3
143 1 -5.08952 -9.24804 20.0722 0.00105978 0.000811549 0.00156274 3
144 1 -4.3328 -8.00011 20.0063 -0.00522311 -0.00878633 0.00404498 3
145 1 -5.03282 -6.7901 19.9003 0.00664898 -0.00138406 -0.00365969 3
162 1 -2.8922 -7.95838 19.9623 0.00664022 -0.00770851 -0.00127276 3
172 1 -2.27825 -9.19226 20.0058 0.0149899 0.000375929 -0.00464918 3
173 1 -2.22021 -6.68713 19.7517 0.0165312 -0.00353863 -0.00750604 3
183 1 -0.848327 -9.22245 19.933 -0.00480939 -0.0142017 -0.00179356 3
184 1 -0.151942 -7.9949 19.8101 0.00185086 0.00289316 -0.00572517 3
185 1 -0.812749 -6.7423 19.9973 -0.00346088 0.00253033 0.00115812 3
202 1 1.28407 -8.03862 19.9165 0.010822 0.00545751 -0.00796746 3
212 1 1.92488 -9.2534 20.199 -0.0144111 -0.00300392 0.000612374 3
213 1 1.91568 -6.76932 19.9284 -0.000768667 0.00416981 -0.00891574 3
223 1 3.3226 -9.26562 20.1618 0.000935181 0.00682578 0.00446004 3
224 1 4.03045 -7.99436 20.2244 -0.0125811 0.000102561 0.00684595 3
225 1 3.2978 -6.73912 20.1349 0.00147039 0.00383105 -0.00452102 3
242 1 5.47976 -8.02495 20.1764 -0.0144377 -0.00123072 0.0137376 3
252 1 6.22784 -9.22799 20.0723 -0.00244657 -0.00134891 -0.00243279 3
253 1 6.22557 -6.74717 20.1825 0.00984238 -0.00579981 0.00795036 3
265 1 7.60329 -6.81373 19.9166 0.00289989 0.00244289 0.0103287 3
263 1 7.61283 -9.26072 19.9659 0.000805502 0.00364108 0.00638755 3
264 1 8.34263 -8.05853 19.9561 -0.000637818 -0.00265991 0.0190184 3
282 1 9.77106 -8.01477 19.8071 0.00384099 -0.00478461 0.00875739 3
292 1 10.5151 -9.21431 19.9318 -0.00550128 0.000551573 -0.00166217 3
293 1 10.4646 -6.80906 19.8869 -0.00893673 0.00463691 0.00230524 3
94 1 -10.8204 -4.3243 19.9663 0.00363694 -0.00549877 -0.00739757 3
95 1 -10.8266 -1.86512 20.0466 0.00024641 0.00670566 -0.00127513 3
106 1 -8.66899 -5.53204 19.993 0.00485289 0.000360294 0.0105559 3
107 1 -9.38438 -4.29115 19.9898 0.00724464 -0.00740512 0.0075527 3
108 1 -8.67889 -3.07611 20.0125 0.00645961 -0.00795029 0.0059354 3
109 1 -9.39564 -1.85714 20.2107 -0.00644939 0.00791185 0.00475415 3
110 1 -8.71083 -0.625514 20.2978 -0.0106582 -0.00799641 -0.0104027 3
123 1 -7.21475 -5.54044 19.8314 -0.00181008 -0.00990649 0.00114901 3
124 1 -7.29311 -3.04354 19.8525 0.00441179 0.0021397 0.0107886 3
125 1 -7.28672 -0.625579 20.0881 0.00171148 -0.00605822 -0.0109843 3
186 1 -0.206132 -5.45668 19.9924 -0.00706107 -0.0105404 -0.00118461 3
134 1 -6.57782 -4.26467 19.7046 0.00792958 0.000619654 0.00757994 3
163 1 -2.93346 -5.43003 19.6624 -0.00195325 -0.00124461 -0.00438359 3
135 1 -6.5933 -1.80921 19.8339 0.00252991 -0.00297246 -0.000740724 3
146 1 -4.37307 -5.48846 19.7023 0.000381488 0.0123568 -0.004813 3
147 1 -5.11961 -4.26566 19.6369 0.00671534 -0.00701296 -0.0043657 3
148 1 -4.51591 -3.04306 19.3249 0.006325 0.00108913 0.00346155 3
149 1 -5.20475 -1.79341 19.479 -0.00142105 0.00084429 -0.00693913 3
164 1 -3.10097 -3.06581 19.3692 -0.00138586 0.00208696 -0.00528379 3
174 1 -2.2557 -4.17952 19.6184 0.00419221 -0.00942912 0.00180123 3
150 1 -4.4539 -0.621139 19.3659 -0.000220786 -5.96462e-05 -0.00984692 3
187 1 -0.909473 -4.20089 19.8908 0.00425035 -0.00871615 -0.00235211 3
165 1 -3.02225 -0.626344 19.188 0.00595938 -0.00449322 -0.00215682 3
175 1 -2.35185 -1.89499 19.2416 0.0173928 -0.0057094 -0.00495251 3
188 1 -0.232265 -2.99595 19.9179 0.0031262 -0.0082109 -0.00686087 3
189 1 -0.949109 -1.84644 19.5429 -0.00509301 -0.000538754 -0.00279596 3
190 1 -0.256967 -0.601796 19.6271 0.00562913 0.00318817 0.0166781 3
203 1 1.20937 -5.55439 20.0987 0.00613915 0.0147708 0.00374005 3
226 1 4.00593 -5.54982 20.2236 0.00895568 0.00604536 0.00392071 3
243 1 5.44594 -5.5463 20.1357 -0.00546151 0.00389154 0.00188822 3
254 1 6.19227 -4.32847 20.0924 0.0178932 -0.00149966 0.00373688 3
255 1 6.19243 -1.88715 20.0006 -0.0104659 -0.000789544 0.00925424 3
227 1 3.27137 -4.30619 20.2738 0.00824441 0.00206632 -0.00208986 3
244 1 5.43553 -3.12899 20.1434 -0.00669449 0.000355785 0.000737517 3
214 1 1.82535 -4.29139 20.2378 0.00890258 -0.00579924 0.0013 3
228 1 3.99194 -3.08597 20.1503 0.00648404 0.00389025 0.00129168 3
245 1 5.46506 -0.662445 19.8443 0.0108224 0.00160345 -0.00247326 3
229 1 3.28257 -1.88161 19.8754 -0.00387282 -0.000236174 -0.0012413 3
230 1 4.03962 -0.695539 19.8349 0.00110695 0.00670448 0.0157919 3
204 1 1.14633 -3.09814 20.0449 0.00385674 0.00735843 0.00511568 3
215 1 1.85856 -1.87074 19.7966 -0.00277111 0.00551204 0.00450552 3
205 1 1.18563 -0.654375 19.8126 0.000141067 0.00838672 0.00667961 3
269 1 7.61158 -1.8975 20.0648 0.00208128 0.00158061 0.0155316 3
267 1 7.58655 -4.34998 19.9864 -0.00157463 0.00479659 0.00810187 3
266 1 8.29938 -5.58006 19.9008 0.00183312 -0.000176369 0.017031 3
268 1 8.34542 -3.10865 20.0173 0.000224935 -0.00578265 0.00305845 3
270 1 8.3417 -0.611337 20.1055 -0.00112346 -0.00633032 0.0036546 3
283 1 9.74569 -5.55855 19.8473 -0.00482795 -0.00586938 0.0130587 3
284 1 9.74434 -3.12519 19.9359 0.00344102 -0.00265675 -0.00195115 3
285 1 9.78605 -0.664403 20.0176 -0.00781955 -0.00380189 -0.00483096 3
294 1 10.4852 -4.36306 19.8943 -0.00717222 0.000526996 -1.86403e-05 3
295 1 10.5404 -1.90221 20.0829 -0.00590712 -0.00232461 -0.000835166 3
96 1 -10.8854 0.551437 20.158 -0.00588798 -0.00261709 -0.000847952 3
97 1 -10.8481 3.05472 20.0304 -0.00138572 0.000279477 -0.00144564 3
98 1 -10.8246 5.49863 19.9873 0.0128477 0.00479737 0.00711618 3
111 1 -9.46055 0.635755 20.3177 0.00403579 0.00811659 -0.0119739 3
112 1 -8.67577 1.84953 20.1914 -0.00907198 0.0019069 -0.000991744 3
113 1 -9.43586 3.12488 19.9456 0.000804271 0.0172675 0.00614623 3
114 1 -8.72472 4.34375 19.8582 -0.00037338 0.00499054 0.00817073 3
115 1 -9.435 5.56048 20.0064 -0.00460416 0.00445255 0.00633683 3
127 1 -7.2879 4.34708 19.6991 -0.00552544 0.00536514 0.0168861 3
126 1 -7.2693 1.86404 20.052 -0.00728507 -0.001682 0.00431971 3
138 1 -6.62035 5.53456 19.8511 -0.00313145 0.0159683 0.00231055 3
195 1 -0.908221 5.50242 20.0421 0.0105591 0.00034205 -0.00226232 3
155 1 -5.19663 5.47831 19.9094 0.00907597 -0.00235273 -0.00641096 3
178 1 -2.34285 5.46743 20.0899 0.000763686 0.00941338 -0.0057893 3
137 1 -6.64012 3.08216 19.7077 -0.00428428 0.00150564 0.000559068 3
153 1 -5.23081 3.06026 19.3778 0.00673675 0.00667535 -0.00240462 3
154 1 -4.52119 4.28427 19.578 0.00906636 0.000147012 -0.0094962 3
136 1 -6.55814 0.591688 19.9707 -0.0053252 -0.00658131 -0.00864619 3
151 1 -5.18684 0.576098 19.5205 -0.00121134 -4.44973e-07 -0.01207 3
167 1 -3.13022 4.29852 19.7765 -0.00030567 -0.00341298 -0.0043413 3
152 1 -4.53851 1.80768 19.335 0.00251699 -0.00397508 0.00468882 3
177 1 -2.40405 3.06094 19.5973 -0.000453333 0.00478634 -0.00334081 3
194 1 -0.241267 4.26348 20.1662 0.0119458 0.0038708 -0.00933384 3
166 1 -3.05439 1.81648 19.2273 0.0106313 0.0014987 -0.00582903 3
176 1 -2.32782 0.630164 19.2424 0.00170014 0.00432012 0.00200115 3
193 1 -0.972064 3.07842 19.7705 -0.00180984 0.00421537 -0.00622277 3
191 1 -0.920545 0.650948 19.416 0.0120622 0.000198291 0.00579987 3
192 1 -0.326927 1.88353 19.7026 -0.00499428 -0.0063685 -0.00259435 3
218 1 1.88169 5.51082 20.1607 0.00272335 0.00261332 0.002158 3
235 1 3.31567 5.49444 20.1327 0.00755964 -0.00242972 -0.000906197 3
247 1 5.46111 4.32334 20.3344 -0.00256297 0.00104085 0.00896678 3
257 1 6.14611 3.06621 20.1883 -0.00804293 -0.0027144 0.0105308 3
258 1 6.2241 5.54147 20.128 0.00321489 -0.00394085 0.0124697 3
234 1 4.02967 4.25033 20.2261 -0.0087574 0.00382633 0.00578431 3
256 1 6.14165 0.596328 20.1434 -0.00464808 0.000930063 0.0016974 3
246 1 5.39094 1.79819 20.1224 0.0010842 -0.00316131 -0.0107816 3
233 1 3.23911 3.04154 20.2279 0.000700557 -0.000198122 0.00953046 3
231 1 3.33108 0.59506 19.8932 0.00412558 -0.00319046 -0.00179629 3
232 1 3.98514 1.84684 20.0537 0.000380826 0.0039596 0.00267863 3
207 1 1.17692 4.28231 20.1604 0.00835847 -0.003572 -0.0145726 3
217 1 1.81475 3.0101 20.0758 -0.00468587 -0.00496081 0.00180143 3
206 1 1.14934 1.82355 19.7643 -0.00306148 -0.00115294 0.0033949 3
216 1 1.90328 0.589946 19.7923 -0.00244537 0.00206382 0.0136756 3
275 1 7.63052 5.5494 19.9423 0.00426949 -0.00247981 0.0109461 3
273 1 7.57302 3.05091 20.0832 0.0164483 0.000267345 0.0060543 3
271 1 7.5593 0.580611 20.1761 0.00159631 -0.00629208 0.0116197 3
272 1 8.28842 1.77528 20.0452 0.00684093 -0.00549792 0.0153982 3
274 1 8.26713 4.25553 19.904 0.00488478 0.00363668 0.00408259 3
286 1 9.68087 1.75818 20.0227 0.0101173 -0.00195912 0.00872236 3
287 1 9.75638 4.22302 19.9201 0.000807114 0.00964078 0.00488364 3
296 1 10.4623 0.528811 20.0544 -0.000919051 -0.00674502 0.00427383 3
297 1 10.4783 2.96659 19.9853 -0.00125936 -0.000956992 -0.000392803 3
298 1 10.4767 5.43128 19.8659 -8.22086e-05 0.00760323 0.00807972 3
99 1 -10.872 7.96404 20.085 -0.00686827 0.00276271 0.00258367 3
116 1 -8.71932 6.80795 20.083 0.000495459 -0.00124935 0.00938761 3
117 1 -9.40229 8.02154 20.2371 -0.00581633 -0.00990797 -0.00336758 3
118 1 -8.66159 9.25602 20.3181 -0.00573455 -0.00565826 -0.00353143 3
129 1 -7.23084 9.19831 20.2007 0.0018169 0.0123192 0.00751575 3
128 1 -7.32651 6.7907 19.9587 0.0103943 0.00100754 0.00924905 3
139 1 -6.51479 8.00147 20.0224 0.000436301 -0.00524349 0.0102522 3
156 1 -4.48793 6.71914 20.0222 0.00100254 -0.00577786 -0.00303909 3
157 1 -5.07768 7.94845 20.0609 0.00945679 0.00701038 -0.00868538 3
158 1 -4.40448 9.18831 19.9433 -0.00631465 0.00558114 0.00954564 3
168 1 -3.02314 6.6769 20.1359 0.00297302 0.00497088 -0.00787286 3
169 1 -2.99461 9.14827 19.9927 0.00528378 0.00049336 -0.00924151 3
179 1 -2.30183 7.91935 20.0407 0.00249315 0.00130265 0.00141006 3
196 1 -0.215181 6.66864 20.0881 0.00493459 -0.00213337 -0.00212121 3
197 1 -0.920628 7.91851 20.1445 0.00432375 -0.00454272 -0.00117783 3
198 1 -0.19164 9.11596 20.0525 0.00910332 -0.00212111 -0.0150082 3
208 1 1.26109 6.74784 20.0262 -0.0016047 0.00278626 -0.0117089 3
209 1 1.22017 9.13366 19.9743 0.00820906 -0.00545973 -0.00291169 3
219 1 1.95099 7.94834 19.9701 0.000953849 -0.00356817 -0.00484854 3
236 1 4.06813 6.6864 20.2425 0.00380195 -7.54942e-05 -0.00214955 3
237 1 3.40334 7.93499 20.1284 -0.00106238 0.00393233 0.00458 3
238 1 4.11199 9.20488 20.1508 -0.0126915 0.000898573 -0.00295838 3
248 1 5.48988 6.75187 20.2537 -0.00869921 -0.00569395 0.0186113 3
249 1 5.51 9.16001 20.1787 -0.00929694 -0.00189691 -0.00551553 3
259 1 6.23513 7.9548 20.2 -0.00700624 0.00642934 0.0123673 3
277 1 7.65944 8.0103 20.0626 -0.00641033 0.00122762 0.00877684 3
276 1 8.36316 6.75838 19.8986 0.000966255 -0.00458035 0.0136393 3
278 1 8.36868 9.18843 20.0298 -0.00688027 0.00936182 0.00862135 3
288 1 9.78637 6.7043 19.771 -0.00445266 5.47435e-05 0.0130658 3
289 1 9.81177 9.2279 20.0172 -0.00423196 0.00146559 0.00721062 3
299 1 10.4735 7.97423 19.9854 -0.00579096 -0.00212598 0.00330016 3
