ITEM: TIMESTEP
23200
ITEM: NUMBER OF ATOMS
168
ITEM: BOX BOUNDS pp pp pp
-1.4715758017245314e+01 1.5057610017245315e+01
-1.2710055654020760e+01 1.2664508654020761e+01
-5.0001035148846022e+01 1.0000103514884636e+02
ITEM: ATOMS id type x y z vx vy vz c_coord
92 1 -10.8799 -9.22392 20.1452 -0.00560722 -0.00118905 -0.00107987 3
93 1 -10.839 -6.74195 20.1807 0.00157426 -0.000591703 0.00125257 3
103 1 -9.41588 -9.19093 20.2956 0.00673717 -0.00459742 -0.00236243 3
104 1 -8.73316 -7.98364 20.4229 0.00405759 -0.000318152 -0.00794486 3
105 1 -9.39435 -6.71915 20.3889 -0.00102653 0.00828567 0.00582364 3
122 1 -7.29481 -7.98322 20.5207 -0.00162192 -0.00493429 -0.0012019 3
132 1 -6.60081 -9.17802 20.2707 0.00311541 -0.0111431 0.00598993 3
133 1 -6.62032 -6.71541 20.626 0.00774047 -0.0098855 -0.00263739 3
143 1 -5.18856 -9.2112 20.1375 -0.0070333 0.000700441 0.0172907 3
144 1 -4.60259 -7.95168 20.2371 -0.00567799 -0.00380749 0.000359122 3
145 1 -5.24877 -6.69917 20.5711 -0.00200301 -0.00642761 0.00390185 3
162 1 -3.212 -7.97473 20.1868 -0.00319958 -0.00204853 -0.00251785 3
172 1 -2.41283 -9.20774 19.9849 -0.00291186 0.00110762 0.00666986 3
173 1 -2.4113 -6.75718 20.2446 -0.00769086 0.00191884 -0.00421644 3
183 1 -1.00321 -9.23002 19.8921 -0.00138602 0.0022439 -0.0113827 3
184 1 -0.247693 -8.04404 19.8346 -0.00176938 -0.00829989 -0.0134818 3
185 1 -0.983148 -6.83851 19.9728 0.00324087 0.00516604 -0.0111681 3
202 1 1.21369 -8.06374 19.8581 -0.0034688 0.0067139 -0.00239818 3
212 1 2.03257 -9.24466 19.9368 -0.00228936 -0.00785219 -0.00612637 3
213 1 2.0133 -6.87123 19.7021 -0.00577468 0.00573768 -0.00957132 3
223 1 3.44202 -9.21705 20.0347 0.00471983 0.000256922 -0.00459122 3
224 1 4.18168 -7.94924 20.1587 0.00739297 0.00189342 0.00589956 3
225 1 3.45541 -6.77074 19.9979 0.00754146 0.00650128 -0.00240222 3
242 1 5.56751 -7.98845 20.2333 0.00250562 -0.00100847 -0.00573466 3
252 1 6.26936 -9.23198 20.0405 0.00419709 0.00496121 0.0052862 3
253 1 6.22963 -6.71575 20.3983 -0.00055926 0.000824485 -0.000615894 3
263 1 7.67431 -9.21092 20.0461 0.00982034 -0.00188427 0.00665896 3
265 1 7.63399 -6.74559 20.4229 -0.00122083 0.00035811 0.000991883 3
264 1 8.35828 -7.96642 20.2593 0.00018398 0.00754088 -0.00473278 3
282 1 9.76567 -7.96656 20.2067 0.0012237 -0.000393102 -0.00732912 3
292 1 10.4939 -9.23891 20.0398 -0.000236479 -0.00592319 -0.00070216 3
293 1 10.5149 -6.78929 20.2755 -0.000938656 0.00616028 0.0020349 3
94 1 -10.8835 -4.36069 20.0429 0.00285894 -0.00153793 -0.00196484 3
95 1 -10.8546 -1.88231 20.0664 0.00951759 -0.00160825 0.00272984 3
106 1 -8.71083 -5.52927 20.5753 -0.000160785 -0.000985478 -0.00520082 3
107 1 -9.48533 -4.30957 20.4145 0.00968441 -0.0028425 -0.00633707 3
108 1 -8.76622 -3.09097 20.4897 0.0114857 0.0070817 -0.00379473 3
109 1 -9.43272 -1.8855 20.2706 0.00977125 -0.00444409 0.00373221 3
110 1 -8.74945 -0.639616 20.169 -0.000183484 -0.0143819 0.00153396 3
123 1 -7.29902 -5.46727 20.7333 -0.00236104 -0.00212406 -0.00994914 3
125 1 -7.32929 -0.627349 20.4607 0.00142193 0.005141 0.0103203 3
124 1 -7.34612 -3.05866 20.6126 0.00431247 9.03135e-05 -0.00439741 3
186 1 -0.213577 -5.59248 19.8296 0.0033719 -0.00497403 0.00430067 3
134 1 -6.59814 -4.24857 20.7765 0.00800781 -0.000814795 -0.011311 3
163 1 -3.04973 -5.49491 20.3679 0.0114073 0.00446597 -0.000656584 3
135 1 -6.6249 -1.81665 20.4779 -0.00570223 -0.00309059 0.00257471 3
146 1 -4.49136 -5.47616 20.4039 -0.00880854 -0.00138371 -0.0100292 3
147 1 -5.15934 -4.24005 20.5652 -0.000989872 -0.00199205 0.000112319 3
148 1 -4.37855 -3.03199 20.3896 0.00251648 -0.00149176 -0.00660608 3
149 1 -5.1937 -1.85116 20.3716 0.00200629 0.00237517 -0.00407713 3
164 1 -2.9332 -3.03977 20.3334 0.00630058 0.00211927 -0.00955625 3
174 1 -2.29381 -4.3341 20.3091 0.0132222 0.00204524 -0.00839097 3
150 1 -4.50704 -0.591761 20.3109 -0.00164061 0.00378133 -0.00777468 3
187 1 -0.926669 -4.3611 19.9662 0.00499333 0.00277396 0.00695704 3
165 1 -3.05093 -0.592536 20.3008 -0.00237899 0.000340676 -0.0228269 3
175 1 -2.26284 -1.82244 20.2436 0.000630826 0.000522009 -0.00486301 3
188 1 -0.215662 -3.13096 19.9193 0.00305021 -0.00491504 0.00617519 3
189 1 -0.849969 -1.86852 20.0886 -0.00423752 -0.00127615 0.00446586 3
190 1 -0.142425 -0.632928 19.9204 0.00498021 0.00378186 0.00592335 3
203 1 1.22978 -5.64642 19.6546 -0.000807635 0.00725936 0.00758758 3
226 1 4.14252 -5.46596 19.9805 0.0141977 0.0231424 -0.00160677 3
243 1 5.52661 -5.48289 20.2235 0.00328996 -0.000128996 -0.00275981 3
254 1 6.25616 -4.27765 19.9774 0.00403544 0.00245388 -0.00287737 3
255 1 6.28567 -1.8759 19.2657 0.00266837 -0.00127613 -0.00816721 3
227 1 3.40578 -4.29941 19.599 0.00706711 0.00134437 0.00599633 3
244 1 5.56077 -3.1142 19.471 0.00853724 0.00675831 -0.000782368 3
214 1 1.93335 -4.35474 19.6016 0.00115542 0.00599825 0.00905662 3
228 1 4.1312 -3.08383 19.318 0.0052283 0.0176777 0.00256829 3
245 1 5.51052 -0.679731 19.1255 0.00713967 0.00309738 -0.00344463 3
229 1 3.31396 -1.87816 19.1066 -0.00058219 0.00429334 -0.00452175 3
230 1 4.07517 -0.695281 19.0134 0.0108924 -0.00184614 -0.0123933 3
204 1 1.18429 -3.12982 19.6415 0.0116881 0.0112095 0.0139504 3
215 1 1.88859 -1.89785 19.4172 0.0108605 0.0107611 -0.00212697 3
205 1 1.21417 -0.673439 19.5226 0.00105242 0.00375344 0.00681107 3
269 1 7.64116 -1.85393 19.5515 0.0148915 -0.00637555 -0.00637773 3
267 1 7.67316 -4.30118 20.1112 -0.0111303 0.0075584 -0.0110695 3
266 1 8.39202 -5.51899 20.3517 0.000235211 0.00396094 0.00207402 3
268 1 8.36665 -3.04262 19.8618 0.00101459 -0.0110104 -0.0113715 3
270 1 8.37243 -0.623776 19.4188 0.0085314 0.0025688 0.00453912 3
283 1 9.82258 -5.52133 20.4031 0.00276544 0.00588646 -0.00377452 3
284 1 9.76876 -3.01655 19.9272 -0.00394879 0.0041858 -0.0113183 3
285 1 9.77431 -0.597951 19.5161 0.00594577 0.00647372 -0.00379615 3
294 1 10.5221 -4.26247 20.1802 -0.00126314 -0.00311477 -0.00302583 3
295 1 10.4951 -1.7623 19.7983 0.000466455 -0.00044972 -0.00781931 3
96 1 -10.8709 0.625651 20.0942 -0.00400182 0.0112304 -0.00518423 3
97 1 -10.8935 3.05014 20.1055 -0.00333049 -0.00183466 -0.00981019 3
98 1 -10.874 5.49983 20.1669 -0.00165527 0.0122693 -0.00858416 3
111 1 -9.43986 0.619538 20.1128 -0.00142348 -0.00786997 0.00832797 3
112 1 -8.75721 1.82067 20.2495 -0.0059097 -0.00194216 -0.000799397 3
113 1 -9.45853 3.03876 20.3255 0.00323643 0.00664104 0.00225346 3
114 1 -8.79328 4.25194 20.605 0.000115468 -0.00272162 0.00260398 3
115 1 -9.50081 5.46561 20.4777 0.000809052 0.000421928 0.000608579 3
126 1 -7.33882 1.92243 20.5149 0.000409605 -0.00240231 0.00963806 3
127 1 -7.36874 4.26947 20.7487 0.00637094 -0.00348395 -0.00473129 3
138 1 -6.65514 5.50075 20.6248 -0.00885699 -0.00121315 -0.00568274 3
195 1 -1.01897 5.57617 19.9254 0.01185 -0.00910639 0.00925073 3
155 1 -5.24372 5.5033 20.562 -0.00812312 0.00522825 -0.00562849 3
178 1 -2.41673 5.53023 20.1275 0.000637788 -0.00157219 0.00142438 3
137 1 -6.57786 3.11845 20.689 0.0117204 0.00276825 -0.00814519 3
153 1 -5.12739 3.05697 20.5201 0.00136982 0.00156081 -0.00210519 3
154 1 -4.43869 4.32896 20.4757 0.0123929 0.00713268 -0.0176491 3
136 1 -6.6946 0.65813 20.4618 -0.0136508 -0.00393732 0.000138423 3
151 1 -5.22339 0.599393 20.5333 -0.00577459 0.000698163 -0.00195277 3
167 1 -3.02294 4.28191 20.2929 0.00264457 0.00400381 -0.00182341 3
152 1 -4.45675 1.77623 20.4813 0.0015682 -0.0107583 -0.00451702 3
177 1 -2.30331 3.01959 20.2106 0.0069389 0.00646109 0.00197055 3
194 1 -0.207087 4.35943 19.9685 0.0109723 0.00193769 0.0135193 3
166 1 -3.0405 1.79363 20.3659 0.00196588 0.00022225 -0.011952 3
176 1 -2.3227 0.576201 20.249 -0.00344931 0.00137751 -0.00490114 3
193 1 -0.862271 3.11184 20.0413 0.00819803 -0.00448536 0.0030591 3
191 1 -0.859685 0.630846 20.063 -0.00545162 0.00208248 0.000109123 3
192 1 -0.124846 1.82073 19.9415 0.00143095 -0.00713516 0.00304519 3
218 1 2.00532 5.49825 19.5982 0.00336038 -0.00178949 0.00485678 3
235 1 3.48414 5.48886 19.6284 -0.00668262 -0.0137107 -0.00264588 3
247 1 5.62324 4.27022 19.8105 -0.000784448 -0.00649924 -0.00513214 3
257 1 6.2389 3.03202 19.5131 -0.00304801 -0.00835788 -0.00456348 3
258 1 6.33571 5.47148 20.1246 0.00538808 0.00040562 -0.00197213 3
234 1 4.17349 4.22904 19.5959 -0.00764065 -0.00345153 0.00171204 3
256 1 6.19494 0.586903 19.2364 0.00220947 -0.00532247 -0.00537919 3
246 1 5.4978 1.82832 19.2145 0.0131139 -0.00110359 -0.00885634 3
233 1 3.39522 3.0739 19.3054 0.0108845 -0.0107614 0.012791 3
231 1 3.31871 0.558265 19.053 0.00273751 -0.00665448 -0.00798922 3
232 1 4.06813 1.80216 19.0729 0.00363854 -0.0124912 -0.00411355 3
207 1 1.20954 4.32819 19.7015 0.00413496 -0.00855003 0.0134501 3
217 1 1.95207 3.1142 19.5163 0.00686214 -0.00851469 0.00293734 3
206 1 1.27155 1.85416 19.603 0.00964811 -0.00910033 0.0133851 3
216 1 1.91967 0.573167 19.3853 0.00678233 0.00998816 0.00237326 3
271 1 7.65297 0.580561 19.2921 0.000827944 -0.00717502 -0.0054987 3
273 1 7.68022 3.05378 19.6479 0.000218382 0.000666927 -0.0108661 3
275 1 7.7069 5.48504 20.3591 0.00617814 -0.0147379 -0.00374033 3
272 1 8.3733 1.82426 19.455 -0.000373688 0.00839131 -0.0020589 3
274 1 8.32251 4.22172 20.1076 0.00383267 -0.0022644 7.03312e-05 3
286 1 9.7946 1.83116 19.6135 0.0050107 0.00160749 -0.00229946 3
287 1 9.70766 4.1926 20.1837 0.00266578 -0.00749636 -0.00389868 3
296 1 10.5204 0.647061 19.6877 -0.000447466 0.00604331 0.000651132 3
297 1 10.4846 3.01882 19.9194 -0.000381275 -0.00470521 -0.00599487 3
298 1 10.5206 5.43762 20.2596 -0.00247833 -0.00278214 -0.00322027 3
99 1 -10.8467 7.98116 20.1162 0.00298873 -0.00596912 -0.00118425 3
116 1 -8.7655 6.69155 20.5596 -0.00469503 0.00947639 -0.00497187 3
117 1 -9.43089 7.95601 20.3499 0.00878429 -0.000109536 0.000286725 3
118 1 -8.71728 9.13177 20.3439 0.00208906 0.00790934 0.00380185 3
128 1 -7.44334 6.70901 20.6963 -0.00477254 -0.0020583 -0.00364627 3
129 1 -7.31576 9.17747 20.4135 -0.00300896 -0.00324884 0.00540404 3
139 1 -6.67845 7.94262 20.5701 0.0047909 0.0070544 0.00223026 3
156 1 -4.51961 6.71273 20.2809 -0.00686823 -0.000165632 -0.00037771 3
157 1 -5.26867 7.93422 20.3386 0.00455722 0.0083581 0.00773114 3
158 1 -4.48119 9.1297 20.1524 -0.00644928 6.76839e-05 -0.00270251 3
168 1 -3.16154 6.74936 20.1584 -0.00404728 0.00879796 -0.00891708 3
169 1 -3.10211 9.17804 20.0634 0.00326607 0.0106909 0.00466598 3
179 1 -2.43252 7.93114 20.0391 0.000515888 0.00359536 -0.00459273 3
196 1 -0.227826 6.77065 19.7302 -0.00714336 -3.76216e-05 -0.0016836 3
197 1 -0.995576 7.95957 19.8313 0.00347053 -0.00563255 -0.00553617 3
198 1 -0.259775 9.16736 19.8562 0.00073603 -0.00209032 -0.0174237 3
208 1 1.24531 6.72399 19.6722 0.00115491 -0.00659587 0.00653113 3
209 1 1.16075 9.16171 19.9028 0.00254082 0.00150544 -0.0139287 3
219 1 1.95184 7.99411 19.8526 -0.00892643 0.00317094 -0.00628778 3
236 1 4.2118 6.69207 19.8547 0.000343397 -0.00661211 0.0016023 3
237 1 3.399 7.91822 20.0042 0.0111213 -0.0158583 0.000155299 3
238 1 4.11387 9.16236 20.0425 0.0041475 -0.00212017 -0.00031801 3
248 1 5.63553 6.71236 20.1318 -0.00674171 0.00234092 -0.00162858 3
249 1 5.51316 9.15252 20.0297 0.00432718 0.00465676 0.00935555 3
259 1 6.30543 8.00834 20.271 -0.00116504 0.00393977 0.00179123 3
277 1 7.73082 8.00443 20.2364 0.00289332 0.00264497 -0.000284857 3
276 1 8.38853 6.74439 20.4217 0.00285039 -0.00204345 -0.00199895 3
278 1 8.4078 9.21738 19.9221 -0.00559169 -0.000519748 0.00212204 3
288 1 9.82433 6.68902 20.2813 0.00748779 -0.00550215 -0.00653596 3
289 1 9.80212 9.18353 19.9411 -0.00573813 0.0039193 0.00301417 3
299 1 10.4926 7.90904 19.988 0.0074309 -0.00394999 0.00705686 3
