ITEM: TIMESTEP
18400
ITEM: NUMBER OF ATOMS
168
ITEM: BOX BOUNDS pp pp pp
-1.4715758017245314e+01 1.5057610017245315e+01
-1.2710055654020760e+01 1.2664508654020761e+01
-5.0001035148846022e+01 1.0000103514884636e+02
ITEM: ATOMS id type x y z vx vy vz c_coord
92 1 -10.8559 -9.22007 20.0333 -0.00280538 -0.00239186 0.0112025 3
93 1 -10.7951 -6.75459 20.0638 0.000334105 -0.008019 0.00359084 3
103 1 -9.42137 -9.1722 20.1023 -0.0100631 -0.00118802 -0.00325486 3
104 1 -8.67597 -7.98239 20.1159 -0.00729667 -0.00482547 -0.00870281 3
105 1 -9.34751 -6.68146 20.2166 7.19715e-05 -0.00217502 0.00179879 3
122 1 -7.225 -8.01828 19.8852 -0.0157317 -0.00688269 -0.00504305 3
132 1 -6.53075 -9.21933 19.9456 -0.0116638 0.00789981 -0.000798565 3
133 1 -6.45288 -6.8023 19.9452 -0.0103969 0.00783535 0.00599575 3
143 1 -5.09243 -9.26208 19.8551 -0.00662028 0.0081091 -0.0073622 3
144 1 -4.36787 -8.04125 19.7969 -0.00401207 -0.00249341 -0.0115457 3
145 1 -5.08764 -6.78823 19.8061 -0.00708555 0.00475754 -0.00581265 3
162 1 -2.98998 -7.9416 19.7624 -0.0102059 0.00524059 -0.0022718 3
172 1 -2.32043 -9.23167 19.9638 -0.00712208 0.00617457 0.00918938 3
173 1 -2.24197 -6.7028 19.7385 0.00126309 0.000295649 0.00864542 3
183 1 -0.890961 -9.15854 20.0382 -0.00508424 -0.00523186 0.00969418 3
184 1 -0.138234 -7.98466 20.02 -0.0123676 -0.00691579 0.0138326 3
185 1 -0.825526 -6.72095 19.9441 0.0113691 -0.00354983 0.000270838 3
202 1 1.31421 -8.00954 20.0516 0.00230742 -0.00434509 0.00949025 3
212 1 2.01085 -9.26093 20.0017 -0.0124488 -0.00635714 -0.00166596 3
213 1 2.05576 -6.81176 20.0789 0.00818499 -0.00381212 -0.00307445 3
223 1 3.43437 -9.20215 20.0397 -0.0127048 0.00154458 0.00359828 3
224 1 4.13882 -8.00801 20.2319 0.00804962 0.00593366 -0.00856331 3
225 1 3.44811 -6.78503 20.2106 0.0047708 0.00335522 -0.00757916 3
242 1 5.55209 -8.03992 20.0549 0.00480605 0.0106906 -0.0116971 3
252 1 6.28834 -9.23175 20.041 0.00216084 0.00110383 -0.0116232 3
253 1 6.19784 -6.79746 20.1355 0.0048988 0.00553859 -0.0120502 3
265 1 7.60787 -6.80495 20.2158 -0.00401962 0.00536586 -0.00614757 3
263 1 7.68739 -9.20762 20.0807 -0.00925893 0.000328738 -0.0112004 3
264 1 8.37736 -8.01065 20.2191 0.0100722 -0.00691971 -0.0112613 3
282 1 9.80063 -8.04766 20.2809 0.000673903 -0.00669738 -0.00509452 3
292 1 10.5346 -9.23225 20.0696 -0.00379496 -0.00184707 -0.000465503 3
293 1 10.5246 -6.79087 20.2423 -0.00629354 -0.00810612 -0.00330392 3
94 1 -10.8357 -4.32973 19.9633 0.00102237 0.00776082 0.00661381 3
95 1 -10.8774 -1.84864 19.7624 -0.00345835 0.0051427 0.00638682 3
106 1 -8.59245 -5.47937 20.1049 0.0069598 0.00170375 0.0087509 3
107 1 -9.35533 -4.25671 20.0566 -0.00131913 0.00437345 0.0127497 3
108 1 -8.7167 -3.01798 19.7619 -0.00381888 -0.00431064 0.0190848 3
109 1 -9.45607 -1.80575 19.583 0.00574288 0.00166703 0.00950174 3
110 1 -8.73044 -0.610558 19.2903 -0.00358075 0.00304384 -0.00199317 3
125 1 -7.23824 -0.668275 19.3273 -0.0091134 -0.0028287 0.00232614 3
124 1 -7.26853 -3.08545 19.7888 0.00721204 0.00887748 0.0145571 3
123 1 -7.16933 -5.55527 20.0044 0.00360638 -0.00997828 0.00704694 3
186 1 -0.0868381 -5.51834 20.1615 0.0147567 -0.00212154 -0.000463031 3
134 1 -6.54849 -4.27253 19.8751 -0.000191289 -0.00537339 0.0147546 3
163 1 -2.98571 -5.46761 19.6141 0.00492302 -0.00357124 0.00171203 3
135 1 -6.57603 -1.85789 19.5378 0.00213286 0.0026232 0.0116437 3
146 1 -4.43034 -5.50961 19.6321 0.00644159 -0.00887861 0.0025029 3
147 1 -5.13257 -4.28278 19.6749 0.0103638 0.00597913 -0.000403846 3
148 1 -4.45642 -3.04294 19.7649 0.00263118 -0.00406712 -0.00179546 3
149 1 -5.16471 -1.82523 19.7687 -0.00124799 -0.00396979 0.00263082 3
164 1 -3.0054 -3.03814 19.8767 0.0058716 0.0056287 -0.00424499 3
174 1 -2.24702 -4.22954 19.7867 0.0104726 -0.00507516 0.0026281 3
150 1 -4.39498 -0.663664 19.9225 0.00414341 -0.00215824 0.00322381 3
187 1 -0.928343 -4.32453 20.2105 0.010565 -0.00368446 -0.00345627 3
165 1 -3.07225 -0.647047 20.44 -0.00216603 0.00276626 -0.00298469 3
175 1 -2.37274 -1.89254 20.4182 0.00331246 -0.00217964 -0.00298849 3
188 1 -0.308356 -3.13116 20.742 -0.000477344 0.00675741 0.00450644 3
189 1 -1.02258 -1.90546 20.9412 0.000795064 0.00753813 6.65705e-05 3
190 1 -0.279838 -0.641657 21.2223 0.0124177 0.00346879 -0.010584 3
203 1 1.3253 -5.54675 20.1504 0.00803638 -0.0015988 -0.0033867 3
226 1 4.12467 -5.52183 20.1959 -0.00545762 -0.00918252 -0.00435337 3
243 1 5.52148 -5.5561 20.1547 -0.00793744 -0.000544666 -0.00694177 3
254 1 6.23074 -4.30926 20.0244 0.00806914 0.00104986 -0.0045349 3
255 1 6.11527 -1.82027 19.9646 -0.00406735 0.00356887 -0.000166484 3
227 1 3.39953 -4.3002 20.1997 -0.00830722 -0.000179081 -0.00389276 3
244 1 5.4492 -3.08563 19.9725 -6.70265e-05 -0.00515512 0.00551225 3
214 1 2.02468 -4.32126 20.3823 0.00389803 -0.00542974 -0.0107406 3
228 1 4.05517 -3.04538 20.2464 -0.00149749 -0.00102676 0.00494054 3
245 1 5.37987 -0.64711 20.3394 -0.0046406 0.000465204 0.00227667 3
229 1 3.32049 -1.92274 20.6382 -0.00696904 -0.00166032 0.00229793 3
230 1 3.9691 -0.643301 20.6875 0.000152951 0.00120368 -0.00458651 3
204 1 1.19987 -3.18203 20.7897 0.00321126 -0.0070113 -0.0103321 3
215 1 1.82724 -1.9466 20.9342 0.00700714 -0.00284369 -0.000300524 3
205 1 1.17618 -0.658553 21.2868 0.0192541 -0.00428123 -0.00633251 3
269 1 7.55525 -1.8903 19.736 -0.00454849 -0.000646006 0.00628418 3
267 1 7.6183 -4.35718 19.9702 0.00721805 0.00158169 0.00789749 3
266 1 8.3407 -5.58172 20.1059 -0.00378591 0.00719736 -0.00584181 3
268 1 8.33451 -3.11399 19.8435 0.00363158 0.00337897 0.00553048 3
270 1 8.27614 -0.638235 19.754 -0.00785762 0.00421717 -0.000768638 3
283 1 9.78774 -5.52082 20.0785 0.000236746 0.00644499 -0.0104002 3
284 1 9.73146 -3.05335 19.8694 0.00316518 0.0015314 0.00407088 3
285 1 9.6921 -0.613308 19.7186 -0.00368548 0.00303069 -0.00536043 3
294 1 10.489 -4.3137 19.9627 0.00357924 0.00120529 -0.0014899 3
295 1 10.4779 -1.85692 19.8076 -0.0125253 -0.00546511 -0.00527182 3
96 1 -10.8926 0.603362 19.7872 -0.00437425 0.0039997 0.00729016 3
97 1 -10.8812 3.03309 19.9006 0.00543811 -0.0129837 0.0110366 3
98 1 -10.8546 5.50415 20.0218 -0.000869119 -0.00403411 0.00392249 3
111 1 -9.47262 0.550852 19.4372 0.000929185 -0.00530072 0.00331988 3
112 1 -8.71423 1.80557 19.4047 0.0094478 0.00706144 0.016986 3
113 1 -9.40507 2.97136 19.7484 0.0087231 -0.00918586 0.0109396 3
114 1 -8.76346 4.28199 19.838 -0.00120637 -0.0025777 0.0181502 3
115 1 -9.41497 5.46279 20.0911 -0.00754828 0.00505842 0.0126456 3
126 1 -7.27843 1.78281 19.5023 0.0100563 -0.0036177 0.00158293 3
127 1 -7.33362 4.28055 19.8203 0.00528532 -0.00305371 0.0117777 3
138 1 -6.58069 5.50537 19.8247 0.000608964 0.00151686 0.00188672 3
195 1 -0.8615 5.45218 19.8564 0.00977509 0.000999984 0.00154803 3
155 1 -5.1601 5.5266 19.6181 0.00293253 0.000302107 -0.00210605 3
178 1 -2.26425 5.37741 19.5187 0.00722948 0.000557885 0.0056202 3
137 1 -6.62774 3.05399 19.614 0.00406555 -0.000722984 0.014361 3
153 1 -5.2278 3.03039 19.5357 0.00996138 0.00506585 0.0048271 3
154 1 -4.51513 4.2216 19.4517 0.0096631 0.0138793 0.00646551 3
136 1 -6.54885 0.56493 19.4116 0.000622433 -0.0105848 0.0119753 3
151 1 -5.11803 0.539009 19.6643 0.0012183 0.00868905 0.000531296 3
167 1 -3.06333 4.25326 19.5674 0.00773268 -0.00328319 0.000651547 3
152 1 -4.50237 1.8234 19.8041 0.00750473 0.00198592 -0.00360425 3
177 1 -2.33828 3.04974 20.0269 -0.000507004 -0.00915203 -0.00152681 3
194 1 -0.185035 4.25182 20.2922 0.00359088 0.00302756 -0.00244193 3
166 1 -3.11367 1.81504 20.1364 0.00190119 4.03235e-05 -0.00981583 3
176 1 -2.39606 0.625323 20.5827 0.00861038 -0.000778155 -0.00461875 3
193 1 -0.951643 3.06193 20.4606 -0.00329621 -0.0100658 -0.00688938 3
191 1 -1.0074 0.619805 21.0431 -0.00230791 0.00620067 -0.00199447 3
192 1 -0.241247 1.8284 20.9121 4.14096e-05 -0.000313626 -0.0101905 3
218 1 1.99546 5.52122 20.2678 0.00689489 -0.00235243 -0.00937195 3
235 1 3.43727 5.48984 20.2217 0.00830961 -0.00266713 -0.00415027 3
247 1 5.57806 4.23249 20.0126 0.0122177 -0.00369859 -0.00505554 3
257 1 6.25832 2.98794 19.9516 0.00856249 -0.00551698 -0.00350221 3
258 1 6.26582 5.48501 20.0629 0.00151512 0.00129593 -0.0108086 3
234 1 4.14651 4.27252 20.1239 0.0047047 -0.00114758 -0.00310288 3
256 1 6.11903 0.576103 20.1247 -0.00313336 -0.00240486 -6.7426e-05 3
246 1 5.41974 1.8502 20.1237 -0.00660976 -0.00466751 0.00477692 3
233 1 3.36713 3.16112 20.5655 -0.00186551 -0.00501104 -0.00231964 3
231 1 3.37881 0.661342 20.8577 0.000419654 -0.00547283 -0.0129228 3
232 1 4.02405 1.89169 20.5625 0.00190623 0.00708795 -0.00112201 3
207 1 1.25251 4.32661 20.4644 0.00271 0.00407393 -0.00777489 3
217 1 1.93893 3.09688 20.7993 0.00244373 0.00404176 -0.00378227 3
206 1 1.21833 1.89439 20.9971 -0.000429643 0.00380267 -0.00945514 3
273 1 7.69349 2.9915 19.7952 3.29281e-05 -0.00656767 0.00503164 3
216 1 1.90067 0.579208 21.1237 0.00680675 0.00271565 -0.00348219 3
271 1 7.53894 0.590727 19.871 -0.0127523 0.00335162 0.00227632 3
275 1 7.67461 5.47547 20.0693 0.00605114 8.18584e-05 -0.00480811 3
272 1 8.32409 1.75815 19.6634 -0.0101579 -0.00219429 -0.00246736 3
274 1 8.38538 4.23477 19.9244 0.00942318 -0.00329341 0.00358205 3
286 1 9.76746 1.80083 19.6091 -0.00355321 0.00276763 0.00248877 3
287 1 9.80124 4.20873 19.8868 -0.00344211 0.00843923 0.00662482 3
296 1 10.4713 0.611248 19.6937 0.00161944 0.00125995 0.00241269 3
297 1 10.5353 2.9744 19.7907 -0.000310169 -0.000798825 0.00138189 3
298 1 10.4825 5.47235 20.085 0.00376117 -0.00496076 -0.00439526 3
99 1 -10.8485 7.96326 20.1517 0.00423652 -0.00645197 -0.00625255 3
116 1 -8.65739 6.69978 20.0463 0.00378817 -0.00459465 0.00316375 3
117 1 -9.34958 7.94409 20.0736 -0.00259143 -0.00419573 -0.00327353 3
118 1 -8.68171 9.16046 19.9952 -0.0102097 -0.000107111 -0.00778532 3
128 1 -7.25332 6.73013 19.887 -2.65303e-06 -0.00231484 -0.00125458 3
129 1 -7.22229 9.12081 19.8714 0.000233416 0.00049697 -0.00406697 3
139 1 -6.42823 7.91404 19.7974 -0.0107312 0.00310714 -0.00231465 3
156 1 -4.3163 6.66321 19.6554 -0.00333406 -0.00412598 -0.0085772 3
157 1 -4.98226 7.92794 19.7788 -0.00284174 -0.00585422 -0.00728361 3
158 1 -4.35319 9.22481 19.8443 -0.00341167 -0.00347756 -0.00573361 3
168 1 -2.95521 6.66694 19.5144 0.000531929 -0.00696841 -0.00197794 3
169 1 -2.95583 9.16841 19.7957 -0.00175057 -0.00570835 -0.00673696 3
179 1 -2.25831 7.89135 19.7755 -0.0046736 -0.00986029 0.0092463 3
196 1 -0.118796 6.72161 19.8465 -0.00446127 0.00580764 0.00660763 3
197 1 -0.84908 7.91878 19.7766 0.0023847 -0.000960616 0.00906328 3
198 1 -0.162091 9.18735 19.9017 -0.0028177 0.00104476 0.00694891 3
208 1 1.28225 6.72774 20.0099 0.000588142 0.0103012 -0.00386152 3
209 1 1.237 9.21712 19.8786 -0.00424771 0.0010797 0.0138107 3
219 1 1.97882 7.99376 19.9326 -5.80522e-06 0.00223762 0.00513513 3
236 1 4.08379 6.71139 20.2661 -0.00125944 0.000129189 -0.0075112 3
237 1 3.39626 7.93061 20.1293 -0.000331043 0.00256318 -0.00966159 3
238 1 4.1058 9.18058 20.0813 -0.000508717 0.00480756 -0.00764222 3
248 1 5.5194 6.69839 20.2334 0.00407769 0.000483785 -0.0139317 3
249 1 5.5211 9.15485 20.0956 0.0101029 -0.00711102 -0.00843892 3
259 1 6.24936 7.9272 20.1434 0.00323016 -0.0104896 -0.0139541 3
277 1 7.67604 7.9712 20.0991 0.00592433 -0.00657032 -0.00638434 3
276 1 8.39732 6.69816 20.1621 0.00522103 0.00891711 -0.00760719 3
278 1 8.37675 9.23463 20.072 0.00371772 -0.00694993 -0.00881133 3
288 1 9.83786 6.71263 20.1877 0.00486559 -0.00355367 0.00249544 3
289 1 9.80496 9.22564 20.1234 -0.00720048 -0.000116078 -0.0151283 3
299 1 10.4854 7.94032 20.1079 0.00332577 0.00121589 4.6391e-05 3
