ITEM: TIMESTEP
13900
ITEM: NUMBER OF ATOMS
168
ITEM: BOX BOUNDS pp pp pp
-1.4715758017245314e+01 1.5057610017245315e+01
-1.2710055654020760e+01 1.2664508654020761e+01
-5.0001035148846022e+01 1.0000103514884636e+02
ITEM: ATOMS id type x y z vx vy vz c_coord
92 1 -10.8373 -9.27332 20.1089 0.00189961 -0.00291498 0.00235168 3
93 1 -10.7979 -6.76775 20.1069 -0.00529178 -0.00502362 0.00296819 3
103 1 -9.36805 -9.18568 20.172 -0.00863709 -0.000890589 0.00119161 3
104 1 -8.69406 -7.92887 20.3371 -0.0179683 0.00126124 -0.00772892 3
105 1 -9.34414 -6.68787 20.2807 -0.00557002 -0.00647597 -0.0147053 3
122 1 -7.21322 -7.94088 20.4571 -0.0139971 0.000905428 -0.0103753 3
132 1 -6.48128 -9.18595 20.2918 -0.00549629 -0.00141383 -0.00387829 3
133 1 -6.55439 -6.70943 20.762 -0.00382036 0.0123904 -0.0125981 3
143 1 -5.08825 -9.18406 20.3607 -0.00215899 0.0105739 -0.00775763 3
144 1 -4.32158 -7.97316 20.7423 -0.00608897 -0.00137571 -0.0168198 3
145 1 -5.06413 -6.77002 20.9197 -0.00153586 0.0168366 -0.0161981 3
162 1 -2.84461 -8.02297 20.7817 -0.0167297 0.00685098 -0.0161965 3
172 1 -2.20844 -9.24954 20.3504 0.00423173 0.00908508 -0.0115566 3
173 1 -2.15796 -6.76458 21.0616 -0.000941105 0.00072116 -0.00588603 3
183 1 -0.826607 -9.23931 20.2663 0.0035785 -0.000767073 -0.00776302 3
184 1 -0.141518 -7.93979 20.6294 -0.00855348 -0.00152594 0.000970973 3
185 1 -0.716152 -6.70139 21.1208 -0.00781716 -0.00181735 0.00521415 3
202 1 1.23781 -7.98768 20.807 -0.00172731 0.00387166 0.00911712 3
212 1 1.88665 -9.26606 20.4396 0.0110837 -0.00170726 0.00266686 3
213 1 2.00258 -6.79149 21.27 0.00639468 -0.00710696 -0.00629214 3
223 1 3.3384 -9.27466 20.4304 -0.000595508 0.00385974 -0.00341917 3
224 1 4.08142 -8.03729 20.7346 -0.00211116 -0.00218524 -0.013656 3
225 1 3.40732 -6.83039 21.147 -0.00563646 -0.00522014 -0.013038 3
242 1 5.58778 -7.99487 20.5289 -0.000983271 0.00376916 -0.00849133 3
252 1 6.29317 -9.18968 20.1771 0.00244124 -0.00470587 -0.00727472 3
253 1 6.28085 -6.74481 20.6852 0.00194096 0.000193657 -0.00827824 3
265 1 7.67167 -6.65413 20.2713 0.00143345 0.00354722 -0.0188509 3
263 1 7.69441 -9.15573 20.062 0.00565625 -0.000370059 0.00182801 3
264 1 8.39789 -7.88223 20.0904 0.00200071 -0.00153789 -0.000578776 3
282 1 9.82436 -7.97348 20.043 0.00510915 -0.0106956 0.00678829 3
292 1 10.4887 -9.2454 19.9332 -0.00617958 -0.00827249 0.0069177 3
293 1 10.4875 -6.74856 20.1107 0.0156807 0.00153518 0.00356225 3
94 1 -10.7961 -4.27187 19.9563 0.00360241 0.0028355 -0.00258462 3
95 1 -10.8481 -1.83093 20.1506 0.0124714 0.00235985 0.000968188 3
106 1 -8.63397 -5.40745 20.4295 -0.00333282 0.000320006 -0.0203538 3
107 1 -9.36082 -4.17454 20.2474 -0.0130323 0.00562505 -0.0118293 3
108 1 -8.69169 -2.99812 20.6887 -0.00173569 0.00630476 -0.0168476 3
109 1 -9.52634 -1.83303 20.7366 -0.0125905 0.000247032 -0.0104672 3
110 1 -8.92701 -0.652694 21.2434 0.00854075 0.00869844 -0.00663516 3
123 1 -7.21248 -5.39339 20.8029 0.00464151 0.0042155 -0.022387 3
125 1 -7.48763 -0.623274 21.6276 0.007229 -0.000817341 -0.00794874 3
124 1 -7.28222 -2.92806 21.1076 -0.00327364 -0.00994944 -0.0168749 3
186 1 -0.0172633 -5.53327 21.6426 -0.0147265 -0.00869882 0.00217716 3
134 1 -6.51924 -4.20908 21.0716 0.0049482 0.00485198 -0.0249682 3
163 1 -2.96357 -5.61186 21.3881 0.003686 -0.00149227 -0.0125131 3
203 1 1.43517 -5.53885 21.7815 -0.00331744 -0.00129873 -0.00181826 3
226 1 4.13861 -5.5723 21.4528 -0.00657188 0.000906229 -0.013266 3
243 1 5.5257 -5.52391 21.0585 0.00604542 0.0101822 -0.0150148 3
254 1 6.21887 -4.2598 21.2259 0.00141351 -0.00365504 -0.0141203 3
255 1 6.51201 -1.8059 21.913 -0.00485748 -0.00218998 -0.00623911 3
269 1 7.90359 -1.85559 21.4954 -0.0052726 -0.00281032 0.000596003 3
267 1 7.60703 -4.23556 20.7558 0.000481898 0.0152287 -0.00910086 3
266 1 8.39045 -5.41548 20.281 -0.00458358 -0.00301598 -0.0148607 3
268 1 8.40134 -3.05299 20.9082 0.00414999 -0.00399106 -0.00601041 3
270 1 8.63625 -0.633743 21.5289 0.00560452 0.00232065 0.00846486 3
283 1 9.80899 -5.495 20.215 0.00674203 -0.00758383 -0.00224642 3
284 1 9.78027 -3.00742 20.4578 -0.00818417 -0.00181193 -0.00181895 3
285 1 9.95025 -0.640754 20.9724 -0.000885645 0.00518617 0.00426573 3
294 1 10.4591 -4.22903 20.1947 -0.00791172 -0.0042054 0.000359788 3
295 1 10.5712 -1.85319 20.5182 -0.00128483 0.00613843 5.57909e-05 3
96 1 -10.9185 0.583628 20.2045 -0.000935294 -0.0027407 -0.00157697 3
97 1 -10.8767 3.03346 20.0403 0.00505652 -0.00516122 -0.000182214 3
98 1 -10.813 5.51753 20.0541 -0.000539015 0.00309169 -0.00464849 3
111 1 -9.60591 0.544734 20.9192 0.00399218 -0.00435436 0.00246773 3
112 1 -8.82329 1.73738 20.9489 -0.00215651 -0.00210362 -0.0148023 3
113 1 -9.44447 2.94219 20.4487 -0.00265128 0.0104534 -0.00976632 3
114 1 -8.68184 4.20015 20.4534 -0.0030373 -0.00567432 -0.0129149 3
115 1 -9.34764 5.46689 20.3381 -0.0028205 -0.0142573 -0.0147219 3
127 1 -7.28603 4.11621 20.8527 -0.00326103 -0.00183316 -0.0193893 3
126 1 -7.4098 1.72471 21.3676 -0.00171885 0.00221001 -0.0119257 3
138 1 -6.53863 5.36303 20.9453 -7.59352e-05 -0.00444251 -0.0228072 3
195 1 -0.804072 5.46767 21.5841 -0.00672978 0.000935992 0.00401859 3
155 1 -5.17549 5.44726 21.3288 0.00381781 -0.00203803 -0.0184411 3
178 1 -2.24387 5.48969 21.4876 5.22104e-05 0.0103886 -0.00737115 3
218 1 2.10051 5.47155 21.72 -0.00379855 0.00407716 -0.00480336 3
235 1 3.53394 5.47898 21.6181 9.7497e-05 0.0011362 -0.0145678 3
247 1 5.65782 4.22507 21.4922 -0.000636129 -0.0040854 -0.0162544 3
256 1 6.50882 0.595819 22.1595 -0.00723932 0.00257774 0.00279487 3
257 1 6.44761 2.95771 21.5897 -0.00913722 -0.00461908 -0.00409158 3
258 1 6.25533 5.46648 20.9499 0.00677156 0.00181632 -0.0169563 3
271 1 7.88719 0.570536 21.6817 -0.00504438 -0.00834553 0.00790613 3
273 1 7.80599 2.91602 21.0856 -0.00128874 -0.00524772 -0.00550529 3
275 1 7.62424 5.42381 20.5347 0.00420785 -0.00297202 -0.00729411 3
272 1 8.59207 1.70918 21.2349 -0.0078504 -0.0102257 0.00827809 3
274 1 8.39381 4.16167 20.5743 0.000960037 0.000770535 -0.0100266 3
286 1 9.9027 1.75112 20.7351 0.000704906 0.00245651 -0.00196458 3
287 1 9.77375 4.17349 20.2348 -0.00332924 -0.000271231 -0.00715122 3
296 1 10.5776 0.548173 20.6035 0.00448616 0.00610647 0.00271439 3
297 1 10.5646 2.95909 20.2859 -0.00469832 0.000759197 -0.00316458 3
298 1 10.5041 5.4284 20.0549 -0.00101669 0.00555666 -0.00476682 3
99 1 -10.8194 7.97502 20.1919 -0.00687767 -0.000359613 -0.00438923 3
116 1 -8.63267 6.75314 20.55 -0.00128829 0.00511342 -0.014632 3
117 1 -9.32285 7.9968 20.4482 -0.00128636 0.00208479 -0.0029825 3
118 1 -8.62993 9.2426 20.3475 0.00343906 -0.00120286 0.00122178 3
129 1 -7.21158 9.18311 20.3295 -0.00226831 0.00181704 -0.000931275 3
128 1 -7.2145 6.66838 20.7209 0.00187677 -0.00862015 -0.0127294 3
139 1 -6.52467 7.93947 20.6421 -0.0112889 0.00188202 -0.00971081 3
156 1 -4.44275 6.71378 21.1624 -0.00249874 -0.00219528 -0.0132828 3
157 1 -5.06091 7.92729 20.6511 -0.0132474 -0.00812682 -0.0124894 3
158 1 -4.40001 9.1529 20.3996 -0.00966137 0.00101514 -0.00752722 3
168 1 -2.99363 6.75909 21.1937 -0.0119677 -0.00831947 -0.0169857 3
169 1 -2.99653 9.14837 20.4381 -0.00967243 0.00254253 -0.0126057 3
179 1 -2.28071 7.90602 20.7865 -0.00905332 -0.00497908 -0.0109832 3
196 1 -0.0896291 6.64337 21.1392 -0.00221319 0.00873012 0.00176014 3
197 1 -0.799595 7.8906 20.7092 -0.00103833 -0.00321376 -0.000539597 3
198 1 -0.11016 9.0763 20.3139 -0.00326772 -0.00342663 0.00963291 3
208 1 1.31742 6.72639 21.2947 -0.00373954 0.00351554 0.00117544 3
209 1 1.28683 9.09794 20.3244 -0.00237426 0.000199471 0.00422945 3
219 1 2.04434 7.92725 20.839 0.000756226 0.00767556 -0.00422464 3
236 1 4.18375 6.75643 21.147 -0.00191334 -0.00515032 -0.0114379 3
237 1 3.46592 7.99558 20.8295 -0.00186656 0.00596311 -0.00786989 3
238 1 4.12849 9.23842 20.4519 0.00598288 -0.012387 -0.00412724 3
248 1 5.56459 6.75037 20.858 -0.00147445 -0.0047548 -0.012222 3
249 1 5.54853 9.17037 20.3003 -0.00224888 -0.00912937 0.00369144 3
259 1 6.33103 7.95514 20.4394 0.00575458 -0.00681764 -0.0029907 3
277 1 7.76291 7.91866 20.2002 0.0129106 0.00720494 -0.00858769 3
276 1 8.36588 6.62056 20.1929 -0.00263373 0.00292272 -0.00667039 3
278 1 8.41881 9.19018 19.9909 7.80238e-05 0.0066627 0.00228566 3
288 1 9.77117 6.63289 20.0289 -0.00432558 -0.000755618 -0.000633953 3
289 1 9.85732 9.15563 19.9633 0.0037499 0.0121858 0.0119757 3
299 1 10.5231 7.88133 19.9947 0.00934019 0.0108767 0.0127109 3
135 1 -6.58702 -1.7603 21.5695 0.000934461 0.0014874 -0.0161322 3
146 1 -4.38513 -5.52445 21.2172 0.0039331 0.006482 -0.0168437 3
147 1 -5.09649 -4.27012 21.4071 0.00318114 0.00693549 -0.0183058 3
148 1 -4.33286 -3.08969 21.7356 0.00392975 -0.0098184 -0.0132393 3
149 1 -5.08622 -1.80897 21.7915 0.00833821 -0.00551513 -0.0140455 3
150 1 -4.30132 -0.674844 22.1104 0.00805184 0.00262399 -0.0182159 3
164 1 -2.86672 -3.17697 22.0493 -0.0031025 -0.0135261 -0.0154681 3
174 1 -2.19272 -4.45098 21.7625 0.000867511 -0.00768777 -0.0122507 3
187 1 -0.783608 -4.41465 22.0379 -0.00127636 -0.0146203 -0.00348242 3
165 1 -2.86154 -0.66087 22.4712 -0.000849082 -0.00306975 -0.0121528 3
175 1 -2.21388 -1.95885 22.5539 -5.65345e-06 -0.00754569 -0.0121253 3
188 1 -0.0986351 -3.24615 22.6547 -0.006635 -0.00731594 -0.000360518 3
189 1 -0.794867 -2.0092 22.8964 -0.00985062 0.0115075 -0.00103368 3
190 1 -0.128987 -0.750636 23.1943 -0.00227126 -0.00456748 -0.0117488 3
227 1 3.58512 -4.30803 21.9498 -0.00778946 -0.00864954 -0.0116684 3
245 1 5.75154 -0.640593 22.3849 -0.000369138 -0.00239278 0.00192869 3
214 1 2.11723 -4.32268 22.1749 0.0060127 -0.0048112 -0.00194669 3
228 1 4.25911 -3.04281 22.145 -0.00360002 -0.00569321 -0.00540736 3
229 1 3.52534 -1.87876 22.5785 -0.000887877 0.00364559 -0.00274481 3
230 1 4.30916 -0.674252 22.7119 -0.00760316 0.00231095 0.00193249 3
244 1 5.72113 -2.99596 21.7965 0.00169756 0.00389353 -0.00695572 3
204 1 1.32388 -3.1231 22.6109 0.00880113 0.00298892 0.00678809 3
205 1 1.33191 -0.724624 23.249 -0.000634664 -0.00735773 -0.00232848 3
215 1 2.0532 -1.90634 22.8596 0.00335126 -0.00700865 -0.000976712 3
137 1 -6.55106 2.89241 21.3659 -0.00426 -0.00256913 -0.0232062 3
153 1 -5.12993 2.93554 21.7472 -0.00353398 -0.000996214 -0.0180079 3
154 1 -4.39249 4.20141 21.5857 0.00326083 0.00805711 -0.0196527 3
136 1 -6.62873 0.526342 21.7215 0.00172185 0.00484263 -0.00597041 3
151 1 -5.08895 0.5386 21.9849 -0.00534361 0.000927355 -0.0166125 3
152 1 -4.35746 1.7563 22.1476 0.00131947 0.00790354 -0.0126405 3
167 1 -2.9649 4.25064 21.8058 0.00152042 -0.00590377 -0.00934817 3
177 1 -2.22628 3.05336 22.3372 0.00402724 0.0009586 -0.00628809 3
194 1 -0.0483133 4.29043 22.1025 -0.00936373 0.00357459 0.00327519 3
166 1 -2.88697 1.80874 22.4969 0.000779596 0.00428665 -0.00814597 3
176 1 -2.17747 0.558757 22.7909 -0.0100054 0.00272016 -0.0123144 3
191 1 -0.7699 0.555459 23.1264 -0.00476218 -5.74581e-05 -0.00935196 3
192 1 -0.0586744 1.85111 23.0228 0.00172692 -0.00109228 -0.00866725 3
193 1 -0.726535 3.08712 22.5514 -0.00241061 -0.00506087 -0.00317642 3
234 1 4.2614 4.22381 21.8699 -0.000287147 8.30592e-05 -0.00943906 3
246 1 5.75821 1.82996 22.2392 -0.0017345 -0.00682219 -0.00410439 3
231 1 3.5135 0.553688 22.9212 0.00622278 0.00397359 -0.000523155 3
232 1 4.29713 1.76467 22.5022 -0.00589147 0.00621672 0.000646922 3
233 1 3.56233 2.97969 22.3033 -0.00187794 0.00507861 -0.00469142 3
207 1 1.40015 4.24449 22.1812 -0.00681557 -0.00382089 0.002267 3
217 1 2.12405 3.02883 22.5246 -0.00679894 0.00830816 9.95499e-08 3
206 1 1.39433 1.84944 22.9753 0.00874876 -0.00280207 0.00223967 3
216 1 2.06994 0.551634 23.1667 0.0136772 -0.00432936 0.00573406 3
