ITEM: TIMESTEP
32500
ITEM: NUMBER OF ATOMS
168
ITEM: BOX BOUNDS pp pp pp
-1.4715758017245314e+01 1.5057610017245315e+01
-1.2710055654020760e+01 1.2664508654020761e+01
-5.0001035148846022e+01 1.0000103514884636e+02
ITEM: ATOMS id type x y z vx vy vz c_coord
92 1 -10.8199 -9.25408 20.0272 -0.00545654 -0.0102998 0.00967066 3
93 1 -10.8105 -6.80302 19.9576 8.29771e-05 0.00416816 -0.000872389 3
103 1 -9.36708 -9.25923 19.91 0.00187305 0.0104828 0.007511 3
104 1 -8.67331 -8.02552 19.8878 0.0011488 -0.00703422 0.00843456 3
105 1 -9.38887 -6.81271 19.8516 -0.00143715 0.00277262 0.00888758 3
122 1 -7.28083 -8.05138 19.93 0.0139078 -0.0124112 -0.00200197 3
132 1 -6.56152 -9.29167 19.9445 -0.000503275 -0.000347845 0.00197152 3
133 1 -6.61944 -6.8155 20.0058 4.03849e-05 0.000714006 -0.00553179 3
143 1 -5.14795 -9.25249 19.947 -0.00538449 -0.00342163 0.00324652 3
144 1 -4.43273 -8.02923 19.8948 0.00633486 -0.00137266 0.00260686 3
145 1 -5.19802 -6.79421 19.9389 -0.00328399 -0.00194258 -0.00586047 3
162 1 -3.01259 -7.97357 19.9146 -0.00686088 0.00312121 0.016891 3
172 1 -2.35238 -9.23522 20.0623 0.00148762 0.0032853 0.00925476 3
173 1 -2.27007 -6.79559 20.1109 0.00709519 -0.000198242 -0.00130749 3
183 1 -0.966765 -9.20834 20.0082 0.005945 0.00240922 -0.00118737 3
184 1 -0.279659 -7.98809 20.2677 -0.000727156 0.00193851 -0.00324939 3
185 1 -0.866594 -6.71246 20.2294 -0.00775513 0.0027687 -0.00641098 3
202 1 1.15677 -7.96014 20.1389 -0.000513581 -0.00786953 -0.00565664 3
212 1 1.85146 -9.25096 20.0253 0.0113744 -0.00356278 -0.00837015 3
213 1 1.84668 -6.77678 20.0575 0.00464743 0.00871003 -0.00379295 3
223 1 3.29296 -9.26923 19.9974 -0.00465834 -0.0114553 -0.00858637 3
224 1 3.9622 -8.00867 19.9423 1.93827e-05 -0.00508599 -0.00497535 3
225 1 3.28996 -6.75861 19.9521 -0.00604005 0.00524688 -0.0061284 3
242 1 5.43558 -7.96887 20.041 -0.00561914 -0.00656267 -0.00519171 3
252 1 6.18052 -9.2152 19.9002 -0.00620076 0.00424878 0.0051384 3
253 1 6.18864 -6.7652 20.1287 -0.00185957 -0.00197786 -0.00112776 3
265 1 7.61282 -6.76828 20.1072 -0.00544775 0.0100935 -0.00129367 3
263 1 7.58894 -9.27255 19.8841 0.00459798 -0.00382437 0.0105501 3
264 1 8.28138 -8.02402 19.8838 -0.00473514 -0.0037333 0.0124513 3
282 1 9.72293 -8.07318 19.9479 0.00125176 0.00796877 0.00797611 3
292 1 10.5044 -9.25246 19.9816 0.0100547 -0.00212866 0.0108718 3
293 1 10.4547 -6.84184 19.8828 0.000503819 0.00826899 0.002829 3
94 1 -10.8834 -4.36059 19.9289 -0.00668751 0.00864763 -0.00222756 3
95 1 -10.8118 -1.86409 20.0297 0.0116238 -0.0017561 -0.0051719 3
106 1 -8.70913 -5.59117 19.9616 -0.00674931 0.00756291 -0.0039333 3
107 1 -9.44897 -4.40129 19.9865 0.000961877 -0.00136209 0.00595393 3
108 1 -8.70166 -3.21503 20.0166 0.00260107 0.000229334 -0.00135823 3
109 1 -9.4013 -1.96226 19.9698 0.00708481 0.0034943 -0.000568025 3
110 1 -8.82274 -0.695413 19.8645 0.00455068 0.00313046 -0.0125022 3
125 1 -7.40013 -0.677346 19.7324 0.00163319 -0.00246473 -0.0149599 3
124 1 -7.2583 -3.13509 20.0078 -0.000620311 -0.00499867 0.000167306 3
123 1 -7.32304 -5.61891 20.0931 0.000318992 -0.0039366 0.00525635 3
186 1 -0.137943 -5.45294 20.1367 -0.00407722 0.00993033 -0.000996706 3
134 1 -6.58145 -4.35126 20.077 -0.00226271 -0.0047319 -0.000468118 3
163 1 -3.00657 -5.55757 20.0361 -0.00498316 0.000430638 0.00680335 3
135 1 -6.65633 -1.89544 19.7145 0.00804312 -0.00475788 -0.0111989 3
146 1 -4.45602 -5.58909 19.9766 0.00100097 0.000163968 0.00488497 3
147 1 -5.1736 -4.36737 19.9573 0.0091903 -0.00083815 -0.000440732 3
148 1 -4.43561 -3.14749 19.734 -0.00421771 -0.0161996 0.0120638 3
149 1 -5.18967 -1.93803 19.6658 -0.00593625 -0.00625271 0.00310469 3
164 1 -3.03414 -3.12422 19.9654 -0.00521179 -0.000561395 0.0146978 3
174 1 -2.30196 -4.33356 20.0828 -0.0045246 0.00216582 0.0127201 3
150 1 -4.60682 -0.656811 19.5297 0.00481153 0.000819855 0.00296262 3
187 1 -0.877401 -4.26587 20.1863 -0.0113768 -0.000582394 0.00455859 3
165 1 -3.13056 -0.618181 19.7261 -0.0109743 -0.0073099 0.0121727 3
175 1 -2.39858 -1.79349 19.9492 0.000469122 0.000512562 0.0187923 3
188 1 -0.218547 -3.0002 20.0112 0.00317912 0.0065073 0.0104796 3
189 1 -0.903729 -1.787 19.8413 -0.00362391 -0.0149989 0.0130191 3
190 1 -0.139144 -0.610687 19.895 0.00928544 -0.000247152 0.019152 3
203 1 1.25112 -5.49977 20.1161 -0.00611263 -0.00340936 -0.00681134 3
226 1 4.08653 -5.58875 20.0758 -0.00381787 -0.00285746 -0.00464124 3
243 1 5.53271 -5.49606 20.2716 -0.00101895 -0.00864966 -0.00493176 3
254 1 6.2611 -4.30214 20.2912 -0.00812685 -0.00571398 -0.00838952 3
255 1 6.33132 -1.91006 20.1383 -0.000750863 -0.00586913 -0.00841445 3
227 1 3.44972 -4.33285 20.0169 0.00331533 -0.0130806 -0.0173245 3
244 1 5.61093 -3.07611 20.1151 -0.00584707 -0.00605093 -0.0154354 3
214 1 2.02111 -4.23867 20.0821 -0.00461981 -0.00539154 -0.00225148 3
228 1 4.19831 -3.09322 20.0655 -0.00176633 -0.00739052 -0.00748114 3
245 1 5.59983 -0.67809 20.0304 -0.00194993 -0.00845138 -0.00434277 3
229 1 3.47935 -1.91048 19.9685 0.00343242 -0.00887026 -0.00302286 3
230 1 4.1788 -0.652883 19.9582 -0.00124904 0.00408986 -0.00185731 3
204 1 1.22881 -3.08063 20.0049 -0.00846842 -0.00749078 0.00541906 3
215 1 2.06516 -1.88922 20.0038 0.00381945 -0.00384143 0.000351657 3
205 1 1.33771 -0.637163 19.9294 0.00472106 0.000484156 0.00728479 3
269 1 7.74849 -1.9027 20.2705 -0.000508112 -0.00529699 -0.00471413 3
267 1 7.67973 -4.31699 20.3153 -0.00719515 0.00393398 0.00533189 3
266 1 8.33917 -5.5503 20.1145 -0.00278324 -0.00466106 0.00182043 3
268 1 8.47051 -3.0946 20.3425 -0.0126656 -0.00357823 -0.00567641 3
270 1 8.45787 -0.668748 20.2892 -0.0020948 -0.00407881 -0.00713321 3
283 1 9.76287 -5.58641 20.0091 -0.00432104 -0.00758759 -0.0111903 3
284 1 9.88588 -3.10951 20.3289 -0.00991582 0.00345258 -0.00633693 3
285 1 9.87336 -0.645475 20.2465 -0.001418 -0.00664847 -0.010254 3
294 1 10.518 -4.37245 20.1114 -0.0052181 0.00738265 0.000807218 3
295 1 10.5382 -1.92199 20.1889 0.00143377 0.000466909 0.00358757 3
96 1 -10.8878 0.605916 19.9129 0.00192353 0.005878 0.00172182 3
97 1 -10.8347 3.01737 19.9674 0.00677475 -0.00669734 0.000574736 3
98 1 -10.8534 5.48689 19.9396 0.00436274 0.000186529 -0.00521391 3
111 1 -9.48828 0.54935 19.9761 0.00598335 0.00477403 -0.0103267 3
112 1 -8.81144 1.78226 19.9449 0.00391237 -0.00683932 -0.00886149 3
113 1 -9.39527 3.05287 19.8962 0.00261297 -0.00158443 -0.00384823 3
114 1 -8.72721 4.29208 20.0687 0.00248411 0.0060998 0.00467921 3
115 1 -9.39845 5.51366 20.0054 0.00228357 0.000466394 0.0119772 3
127 1 -7.30259 4.27301 19.9171 0.00288136 0.00165813 0.00727077 3
126 1 -7.39498 1.77662 19.7749 0.00241821 0.00361081 -4.05074e-05 3
138 1 -6.56135 5.58466 19.8731 0.000803289 0.00759492 -0.0003248 3
195 1 -0.880172 5.46925 20.0275 -0.00375572 0.0105273 -0.00258725 3
155 1 -5.13267 5.55819 19.9369 0.0022537 0.0036161 0.00424277 3
178 1 -2.27347 5.51758 20.0334 -0.00990788 -0.00669653 0.0029048 3
137 1 -6.69935 3.09172 19.7014 -0.00644133 0.00930753 -0.00163828 3
153 1 -5.25349 3.08946 19.7816 -0.0146201 0.0111952 -0.00279906 3
154 1 -4.46362 4.28215 19.8711 -0.000657961 0.00366711 0.00380882 3
136 1 -6.71663 0.549215 19.6477 -0.00537701 -0.000920368 -0.00872758 3
151 1 -5.28696 0.582574 19.6127 -0.000439979 -0.00357913 -0.00198998 3
167 1 -3.04417 4.28552 19.879 -0.00220992 0.00199165 0.0166226 3
152 1 -4.54875 1.88476 19.7284 0.00172258 -0.00553384 0.00493899 3
177 1 -2.37685 3.04559 19.8297 0.000238893 -0.00262555 0.0175588 3
194 1 -0.205771 4.16627 19.9813 -0.00789966 0.00925342 0.00586325 3
166 1 -3.10987 1.83976 19.7385 -0.00454824 9.53933e-05 0.0102363 3
176 1 -2.35243 0.573317 19.6937 0.00567167 -0.00262593 0.0190911 3
193 1 -0.939887 2.95735 19.8548 -0.00560443 0.000649987 0.0118541 3
191 1 -0.917266 0.571424 19.7146 -0.00364759 -0.00310418 0.0194503 3
192 1 -0.166775 1.81906 19.8185 0.00404562 0.000133802 0.012268 3
218 1 1.82528 5.58009 19.8716 0.00214308 0.0020391 -0.00438855 3
235 1 3.27598 5.53763 19.7165 -0.00317805 -0.000560908 -0.00185898 3
247 1 5.52927 4.25546 19.8911 -0.0150632 0.00192856 -0.00962211 3
257 1 6.26329 3.03873 19.9928 -0.00409075 0.012074 -0.00867158 3
258 1 6.26497 5.52407 19.9164 -0.00605241 -0.0031412 7.40939e-05 3
234 1 4.06272 4.31986 19.7778 -0.00710639 0.0153651 -0.0158123 3
256 1 6.32832 0.600083 20.0817 -0.0073323 0.000442273 0.000209022 3
246 1 5.6345 1.78737 19.8966 0.00569346 -0.00477563 -0.00819926 3
233 1 3.3972 3.06185 19.6896 0.000270423 0.00704449 -0.0132712 3
231 1 3.51755 0.593319 19.7951 0.00290399 0.0057084 -0.00184318 3
232 1 4.18562 1.81312 19.7955 0.00266422 0.000251041 0.0109198 3
207 1 1.1962 4.28475 19.897 -0.01168 0.003954 -0.0115585 3
217 1 1.97858 3.03815 19.8518 -0.00442642 -0.00296432 -0.010338 3
206 1 1.37509 1.76047 19.8581 0.00281954 -0.00151628 0.0120998 3
216 1 2.06963 0.565149 19.8259 0.00309514 0.000485883 0.0113433 3
271 1 7.76376 0.535463 20.2715 -0.0022528 -0.00429771 0.00114222 3
275 1 7.67092 5.52435 20.1225 -0.0134564 0.000978629 -0.00370651 3
273 1 7.68854 3.0265 20.1555 -0.0072509 -0.00213591 -0.0162121 3
272 1 8.43786 1.77843 20.2961 -0.00617485 -0.00225458 -0.00917073 3
274 1 8.395 4.30969 20.2497 -0.0139162 -0.000723078 -0.000547128 3
286 1 9.83155 1.86757 20.2985 -0.00341213 0.00187171 -0.00277188 3
287 1 9.81215 4.3701 20.2149 0.00252379 -4.92143e-05 -0.00353135 3
296 1 10.5488 0.62413 20.2158 -0.00103841 0.000477863 -0.00263271 3
297 1 10.5347 3.07354 20.1587 0.00358042 0.00380864 0.00341787 3
298 1 10.5281 5.55315 19.9534 -0.00184818 0.000486637 0.00908308 3
99 1 -10.8682 7.96673 20.0151 -0.00595705 -0.0048516 0.0113172 3
116 1 -8.74248 6.78279 19.9191 0.00174421 -0.00522431 -0.00458688 3
117 1 -9.42255 8.0401 19.8276 -0.00095564 -0.00596197 0.00628808 3
118 1 -8.68567 9.23206 19.9246 -0.000375278 -0.00494533 0.00146057 3
128 1 -7.32674 6.7706 19.8632 0.00282893 0.00747448 -0.001892 3
129 1 -7.26713 9.20297 19.8547 -0.000556771 -0.00474893 3.49808e-05 3
139 1 -6.61007 7.99893 19.8602 0.00244196 0.00887082 -0.00350847 3
156 1 -4.43721 6.80341 19.8518 0.00161712 0.0123247 0.0051579 3
157 1 -5.1879 8.01038 19.7612 0.000316378 0.0050517 0.00254644 3
158 1 -4.47053 9.19157 19.7755 0.00267082 0.000195502 0.00368809 3
168 1 -3.02267 6.74078 20.0398 0.00806905 0.00578531 0.00602421 3
169 1 -3.10018 9.21779 19.8873 -0.00200676 -0.000833863 0.00304643 3
179 1 -2.36875 8.00627 20.127 -0.00359443 -0.00435368 0.00035095 3
196 1 -0.246077 6.72845 20.1202 0.0017597 0.0055941 -0.00908345 3
197 1 -0.97586 7.95152 20.1349 -0.00080848 0.00811196 -0.00178045 3
198 1 -0.165241 9.19005 20.1422 -0.00554199 0.00713235 0.000554653 3
208 1 1.16304 6.8079 19.9879 -0.00316453 0.0088968 -0.0107636 3
209 1 1.2162 9.18599 19.9761 -0.0121658 0.00677572 -0.00415032 3
219 1 1.91726 8.01512 20.0332 -0.00619042 -0.012105 -0.0095581 3
236 1 4.01269 6.77123 19.7496 -0.00674933 0.01237 -0.00493231 3
237 1 3.32885 7.95808 19.9423 -0.00451768 -0.00382923 -0.00647225 3
238 1 4.07314 9.19056 19.8627 -0.00701704 0.00590225 -0.00819576 3
248 1 5.43708 6.67388 19.8194 -0.00911881 0.00968433 -7.85639e-05 3
249 1 5.4542 9.18779 19.8884 -0.00260356 0.00722386 -0.000667991 3
259 1 6.12662 7.92368 19.9297 -0.00561627 -0.00208519 0.000969177 3
277 1 7.57351 8.01311 19.843 -0.00219089 0.00833113 0.00457606 3
276 1 8.34167 6.7847 19.9942 -0.0078951 -0.00831971 0.00217788 3
278 1 8.36193 9.17684 19.8223 0.00721503 -0.00372906 0.0139425 3
288 1 9.78525 6.80049 19.979 -0.00187713 0.00473736 -0.00645063 3
289 1 9.73938 9.21935 19.8682 -0.00143606 -0.00077856 0.00403129 3
299 1 10.5132 8.01505 19.8464 -0.00730206 -0.0015571 0.0022135 3
