ITEM: TIMESTEP
40000
ITEM: NUMBER OF ATOMS
60
ITEM: BOX BOUNDS pp pp pp
-1.4715758017245314e+01 1.5057610017245315e+01
-1.2710055654020760e+01 1.2664508654020761e+01
-5.0001035148846022e+01 1.0000103514884636e+02
ITEM: ATOMS id type x y z vx vy vz c_coord
8 1 -1.01374 -0.981135 3.12876 -0.00498434 -0.00396224 -0.0267959 3
28 1 -1.82675 -2.09644 3.51767 -0.00789151 0.0022466 -0.0318067 3
42 1 -3.07062 -0.123458 3.59751 -0.00648124 0.00448364 -0.0245117 3
44 1 -3.03238 -1.53621 3.9453 0.0110126 -0.00495489 -0.0205991 3
7 1 0.318498 -0.976578 3.63112 -0.00192771 0.00217479 -0.0288958 3
27 1 -1.779 0.231401 3.01614 -0.0102879 -0.0109458 -0.0285691 3
51 1 -1.19261 1.43834 3.49589 0.00759676 0.004341 -0.0456632 3
52 1 -1.28207 -2.98012 4.45782 -0.00140002 -0.0026765 -0.0368538 3
20 1 -3.59601 -1.95105 5.20515 -0.000835612 -0.00374904 -0.0280018 3
36 1 -1.88574 -3.54052 5.62172 -0.0114178 0.00164221 -0.0445207 3
4 1 -4.47663 -1.08476 6.00265 -0.00386976 -0.0067617 -0.0304734 3
60 1 -3.15052 -3.09959 5.92885 0.0123462 -0.00295405 -0.0471359 3
12 1 -0.979248 -3.83213 6.69782 0.000749918 -0.00955274 -0.0401017 3
19 1 -4.44484 -1.62763 7.3746 -0.0114035 -0.00490066 -0.0441433 3
58 1 -3.63711 -2.85402 7.22238 0.00238856 0.00272872 -0.0325054 3
11 1 -1.38372 -3.84318 8.10128 0.0134824 0.0146736 -0.045751 3
34 1 -2.64393 -3.23473 8.27375 -6.62843e-05 0.00377548 -0.0387595 3
43 1 -4.30061 -0.598225 8.45069 0.00384354 -0.00288374 -0.0427755 3
33 1 -0.260523 -3.28286 8.90453 0.00233975 -0.0076314 -0.0296105 3
50 1 0.0741191 -2.97272 4.90351 -0.0116804 -0.00280708 -0.0274323 3
24 1 -3.32374 -1.02075 9.38764 -0.00306872 -0.014177 -0.0406401 3
48 1 -2.46513 -2.22291 9.15918 0.00815907 0.00676076 -0.035485 3
46 1 -1.04358 -2.14044 9.39847 -0.00402709 0.00202354 -0.0356556 3
22 1 -0.416672 -0.932181 9.61592 -0.00185332 0.00168363 -0.0329446 3
26 1 0.923074 -2.02954 4.34015 -0.000486036 0.00248693 -0.0264569 3
40 1 1.82378 -1.37179 5.28011 -0.00911603 -0.00402829 -0.0209695 3
16 1 2.09136 -1.89089 6.58243 0.000602451 0.00875655 -0.0308781 3
35 1 0.316014 -3.48921 6.21441 0.00491095 0.00357881 -0.0424637 3
59 1 1.44375 -3.05717 7.07373 -0.0099246 -0.00405129 -0.0291636 3
2 1 2.46401 -0.99206 7.63751 -0.00342969 0.001127 -0.0422403 3
15 1 1.68872 -1.48645 8.72603 1.00504e-05 -0.00716784 -0.0224916 3
57 1 1.0255 -2.76216 8.41139 -0.00702805 0.00184885 -0.0377553 3
39 1 0.865368 -0.532022 9.37682 0.00425047 -0.00848484 -0.0241653 3
32 1 -1.74051 2.29329 4.47626 -0.00638982 -0.00803793 -0.0165585 3
10 1 -0.792569 2.82961 5.42511 0.00571793 -0.00675444 -0.0123151 3
18 1 -3.5917 0.813008 4.52699 0.00190233 0.00393431 -0.0357032 3
56 1 -2.93582 1.93748 4.98732 0.00271392 0.00430533 -0.0411132 3
3 1 -4.25066 0.286915 5.73936 -0.024447 -0.0068982 -0.0352492 3
54 1 -3.314 2.20549 6.37264 -0.0223487 0.00862964 -0.0395158 3
9 1 -1.08748 3.08987 6.71526 0.015516 -0.00923341 -0.0357553 3
17 1 -4.32039 1.22032 6.82844 0.00539024 0.0123609 -0.0528365 3
30 1 -2.46632 2.90703 7.24025 -0.00423284 0.00406929 -0.023798 3
29 1 -0.0659008 2.85499 7.68883 0.00224085 -0.0115602 -0.0326154 3
47 1 -2.25851 2.44151 8.44782 -0.00705209 -0.0086176 -0.0321893 3
41 1 -4.26577 0.886702 8.2825 0.00390861 -0.00344358 -0.0467957 3
45 1 -0.916504 2.37352 8.69473 0.00276315 -0.00105932 -0.0350712 3
23 1 -3.21632 1.42842 9.00328 0.00218973 0.00446486 -0.04749 3
6 1 -2.68191 0.238766 9.56704 -0.00833535 -0.00298986 -0.0394835 3
5 1 -1.29004 0.223173 9.58477 0.0131903 -0.00136867 -0.0256978 3
21 1 -0.337239 1.34103 9.44805 0.00090198 0.0125203 -0.0329436 3
38 1 1.87901 -0.0185249 4.9677 0.000657029 -0.0146988 -0.0376128 3
25 1 0.83745 0.231794 4.14463 0.000618182 -0.00807658 -0.0265337 3
49 1 0.173858 1.48213 4.03909 -0.00504057 0.0170461 -0.0302705 3
31 1 0.54138 2.48311 4.96573 0.00334407 0.00545171 -0.0312204 3
14 1 2.22781 0.854076 5.96625 -0.00184477 -0.0023278 -0.0245183 3
55 1 1.52472 2.07097 6.00217 0.00110284 0.0251263 -0.0228969 3
1 1 2.50873 0.400215 7.34522 -0.0063635 -0.00379731 -0.0265964 3
53 1 1.13894 2.31768 7.32354 -0.000916598 0.000397707 -0.0422055 3
13 1 1.86028 1.405 8.14283 -0.0175755 0.00459985 -0.0324745 3
37 1 1.00488 0.85793 9.15825 -0.0044436 -0.00887605 -0.0444242 3
