ITEM: TIMESTEP
31600
ITEM: NUMBER OF ATOMS
60
ITEM: BOX BOUNDS pp pp pp
-1.4715758017245314e+01 1.5057610017245315e+01
-1.2710055654020760e+01 1.2664508654020761e+01
-5.0001035148846022e+01 1.0000103514884636e+02
ITEM: ATOMS id type x y z vx vy vz c_coord
8 1 -0.953057 -1.09891 8.96477 0.00474286 0.00841859 -0.0425199 3
7 1 0.371941 -1.02125 9.27513 -0.00627434 0.00748157 -0.0258442 3
27 1 -1.74507 0.119222 8.94186 -0.000546611 -0.00346728 -0.0463097 3
51 1 -1.07436 1.35738 9.14567 0.00892923 -0.000709469 -0.0406909 3
25 1 1.06738 0.0896037 9.57533 -0.0169653 0.00849574 -0.0285472 3
49 1 0.323708 1.32044 9.43841 -0.016381 -0.000341941 -0.0370766 3
28 1 -1.77729 -2.07655 9.61099 0.000583518 0.00307113 -0.0355244 3
42 1 -3.05325 -0.135131 9.54165 -0.00989517 -0.0139546 -0.03697 3
44 1 -3.0615 -1.47028 9.92373 -0.0116551 -0.00141916 -0.0525662 3
52 1 -1.14894 -3.14561 10.3122 -0.00457112 0.00951005 -0.0312081 3
20 1 -3.67755 -1.95423 11.1432 -0.0040157 0.000264507 -0.0430326 3
36 1 -1.85327 -3.63141 11.522 -0.0154928 0.0069211 -0.0359948 3
4 1 -4.35228 -0.98415 11.968 0.0107025 0.00566825 -0.0491129 3
60 1 -3.06196 -3.03564 11.9595 0.0113937 0.00787858 -0.0416762 3
12 1 -0.876844 -3.66043 12.5347 -0.00571324 -0.0181065 -0.0243265 3
19 1 -4.18869 -1.47107 13.3516 0.000645476 -0.000269554 -0.0279627 3
58 1 -3.41547 -2.6631 13.255 -0.000346115 0.00222423 -0.0429653 3
11 1 -1.14196 -3.43398 13.8839 0.00401515 -0.00363965 -0.0408156 3
34 1 -2.39654 -2.88135 14.1953 -0.00456406 -0.00675394 -0.0338529 3
43 1 -3.71113 -0.501804 14.2626 -0.0165719 0.0110731 -0.0106356 3
33 1 0.0869198 -2.99319 14.5547 0.00864052 0.00225508 -0.0326878 3
24 1 -2.80797 -0.805791 15.3256 -0.00616978 -0.0149891 -0.038292 3
48 1 -2.00114 -1.98648 15.1403 -0.00190653 -0.0108965 -0.0389553 3
46 1 -0.601277 -1.91838 15.2793 0.0029558 0.00199051 -0.0403163 3
22 1 -0.0271055 -0.709851 15.1945 -0.00539072 -0.0112113 -0.0456022 3
26 1 1.03287 -2.0448 10.0111 -0.00896079 0.00377507 -0.0344539 3
38 1 2.16431 -0.040356 10.4406 -0.0144651 -0.0054565 -0.0279939 3
40 1 2.15951 -1.45917 10.6658 0.00904487 -0.000904084 -0.0237263 3
50 1 0.175932 -3.07629 10.6018 -0.004038 9.82577e-05 -0.0250832 3
16 1 2.55167 -1.99498 11.9919 0.0143177 -0.0100067 -0.0332102 3
35 1 0.385934 -3.43614 11.9505 -0.00230452 0.00465582 -0.0268725 3
2 1 2.80903 -0.971628 12.9927 0.00153413 0.00227694 -0.0309776 3
59 1 1.58473 -2.8785 12.6254 -0.00261566 0.0107133 -0.0196634 3
15 1 2.20605 -1.38462 14.2032 -0.00055127 -0.0110775 -0.0306969 3
57 1 1.41849 -2.59285 13.9795 -0.00153182 -0.00351128 -0.0293726 3
39 1 1.23155 -0.475464 14.8602 -0.00368641 -0.000287968 -0.0246488 3
32 1 -1.72683 2.27294 10.0752 -0.000676919 -0.00163968 -0.0433918 3
10 1 -0.656945 2.87216 10.8632 -0.0113079 0.00601487 -0.0207389 3
18 1 -3.76441 0.857941 10.337 0.00755988 -0.00401018 -0.0304832 3
56 1 -3.02918 2.08178 10.6656 0.00941323 -0.0071796 -0.0289659 3
3 1 -4.20126 0.321893 11.5867 0.0137419 -0.0168353 -0.0363032 3
54 1 -3.24447 2.39584 12.0147 -0.00830431 -0.00106677 -0.0390233 3
9 1 -0.885171 3.41276 12.1921 -0.00285119 0.00740457 -0.0420196 3
17 1 -3.82118 1.2727 12.5588 -0.00718728 -0.00258378 -0.0418927 3
30 1 -2.20541 3.12382 12.6453 0.00163522 -0.00643338 -0.0213776 3
47 1 -1.87483 2.68865 14.018 0.00545711 0.00379301 -0.0212486 3
41 1 -3.4662 0.750821 13.7056 -0.0078989 0.00790684 -0.0318086 3
45 1 -0.476588 2.79206 14.2195 -0.00453946 -0.000823307 -0.0344577 3
23 1 -2.66132 1.65072 14.5888 -0.00552774 -0.00446775 -0.0303214 3
6 1 -2.12449 0.533571 15.3459 -0.000806854 0.0122512 -0.0354695 3
5 1 -0.76403 0.487317 15.2652 0.00224774 -0.00138774 -0.0507864 3
21 1 0.0418568 1.61673 14.7379 0.00950879 0.000392323 -0.0407325 3
31 1 0.605794 2.31604 10.5114 -0.00510286 -0.0102493 -0.0264321 3
14 1 2.5569 0.946173 11.4159 -0.00525855 -0.01768 -0.0308447 3
55 1 1.70879 2.08825 11.4477 -0.0151655 -0.00505763 -0.0198594 3
1 1 2.88232 0.451547 12.7352 0.00164858 0.0126161 -0.0210008 3
53 1 1.47967 2.53915 12.722 0.0111145 0.00820305 -0.0312329 3
29 1 0.215241 3.20593 13.0808 -0.000856311 0.00554764 -0.0226008 3
13 1 2.09885 1.45806 13.4286 0.0135219 0.000588556 -0.0250318 3
37 1 1.20149 0.87823 14.3498 0.00297728 0.00405682 -0.0396264 3
