ITEM: TIMESTEP
4600
ITEM: NUMBER OF ATOMS
60
ITEM: BOX BOUNDS pp pp pp
-1.4715758017245314e+01 1.5057610017245315e+01
-1.2710055654020760e+01 1.2664508654020761e+01
-5.0001035148846022e+01 1.0000103514884636e+02
ITEM: ATOMS id type x y z vx vy vz c_coord
8 1 -0.687405 -1.35596 11.4516 0.00592644 -0.000921923 0.0559828 3
20 1 -2.82262 -1.78144 14.2048 -0.00613505 0.000167042 0.0466448 3
27 1 -1.37281 -0.120286 11.364 -0.00330559 0.00275202 0.0564412 3
28 1 -1.40537 -2.28048 12.2882 -0.00100429 0.00272335 0.0537678 3
36 1 -1.12688 -3.34978 14.6155 0.00262684 -0.00113599 0.0441007 3
42 1 -2.49659 -0.238938 12.2527 -0.00110124 0.00425255 0.0518257 3
44 1 -2.52967 -1.53763 12.8174 -0.00403636 -0.00218335 0.0501968 3
52 1 -0.725356 -3.17932 13.1955 0.00142037 -0.0028952 0.0505274 3
4 1 -3.09285 -0.623901 15.0063 -0.00450876 -0.00185953 0.0509883 3
12 1 -0.0129871 -3.39975 15.4279 0.00354173 -0.00216398 0.0540806 3
19 1 -2.88734 -0.842867 16.3381 -0.0101066 -0.000360992 0.0400019 3
58 1 -2.28866 -2.13219 16.4379 -0.00983357 -0.0037244 0.0479367 3
60 1 -2.23395 -2.71736 15.1001 -0.00468109 -0.000784682 0.0466417 3
7 1 0.708535 -1.37487 11.4277 -0.00172452 -0.00141478 0.0574262 3
16 1 2.82641 -1.77487 14.193 0.00306552 -0.00172048 0.0478872 3
25 1 1.37827 -0.128066 11.362 -0.0013936 0.00153421 0.0570501 3
26 1 1.38591 -2.26809 12.2813 -8.0223e-05 0.00129002 0.0533538 3
35 1 1.12394 -3.35647 14.5693 0.00382067 0.00294392 0.0533343 3
38 1 2.49215 -0.25458 12.2444 -0.00326417 -0.0025596 0.0486734 3
40 1 2.52125 -1.57291 12.7935 0.00248229 -0.000637669 0.0539274 3
50 1 0.716912 -3.18578 13.1877 -0.0024056 -0.00353708 0.0526558 3
2 1 3.06987 -0.631144 14.9954 0.00579013 -0.00167146 0.0461102 3
15 1 2.85733 -0.864447 16.3327 0.00986508 -0.00469705 0.0449281 3
57 1 2.29155 -2.09556 16.4295 0.00857899 -0.00483371 0.04174 3
59 1 2.26375 -2.70378 15.1202 -0.000444768 -0.000187081 0.0421766 3
3 1 -3.12093 0.63118 14.4259 -0.00167942 0.00105387 0.0509709 3
9 1 -0.00158176 3.35918 14.0392 -0.00237592 0.0028025 0.0482717 3
10 1 0.00520465 2.89367 12.6638 0.00178346 0.000892354 0.0458471 3
18 1 -2.89567 0.874979 13.0579 0.00356833 -0.00235992 0.0501332 3
32 1 -1.13251 2.27657 12.0886 0.00175424 0.00125128 0.051843 3
51 1 -0.697905 1.1645 11.271 0.00749681 0.00253976 0.0534342 3
54 1 -2.19253 2.63127 14.3679 -0.00510565 -0.00142896 0.0486718 3
56 1 -2.24667 2.14784 12.9998 -0.00550967 -0.0041938 0.0520143 3
17 1 -2.8263 1.74089 15.2355 -0.00272953 0.00174238 0.0475014 3
30 1 -1.1306 3.31646 14.919 -0.00246307 -0.00217317 0.049669 3
47 1 -0.713768 3.22121 16.326 -0.000170872 -0.00135925 0.0475999 3
1 1 3.1212 0.636324 14.436 0.000973931 0.00448416 0.0473866 3
14 1 2.85715 0.870713 13.0497 0.00287105 -0.00299054 0.0553172 3
31 1 1.13102 2.25776 12.1088 0.000609313 0.00450043 0.0554444 3
49 1 0.726627 1.18575 11.2866 9.88065e-05 0.000684257 0.0552259 3
53 1 2.20517 2.67811 14.3751 0.00664728 -0.00415566 0.0498852 3
55 1 2.20856 2.16869 12.9958 -0.00115529 0.00102309 0.0496256 3
13 1 2.84395 1.74623 15.2499 0.00113486 0.0025234 0.0435325 3
29 1 1.12107 3.33047 14.9486 0.00145423 -0.00149305 0.0494496 3
45 1 0.697291 3.20885 16.3132 0.00279379 -0.0014866 0.0469543 3
11 1 -0.0137758 -2.93128 16.7695 -0.00289707 -0.00956575 0.0394716 3
34 1 -1.15755 -2.32311 17.3189 -0.00294234 -0.00454743 0.0426669 3
48 1 -0.698001 -1.06484 17.8436 0.0117345 0.00426452 0.00727057 3
33 1 1.15324 -2.3062 17.326 0.00850195 -0.00759421 0.0422599 3
46 1 0.711501 -1.13916 18.01 -0.00971632 0.0098008 0.0160556 3
41 1 -2.53548 1.59949 16.6132 -0.00809344 0.00260874 0.0484677 3
6 1 -0.719807 1.34443 17.8611 -5.34632e-05 -0.00175902 0.0344026 3
23 1 -1.4248 2.30366 17.1629 -0.0103239 0.00475394 0.0449034 3
24 1 -1.32893 0.129208 17.8696 0.0049665 0.005691 0.0058051 3
43 1 -2.56532 0.25337 17.2038 -0.0104519 0.00369982 0.0456297 3
37 1 2.53905 1.59108 16.6277 0.00895528 0.00494636 0.0457918 3
5 1 0.692514 1.32923 17.8912 -0.00225608 -0.00459321 0.0380388 3
21 1 1.415 2.30685 17.1352 0.00499445 0.00856407 0.0425932 3
22 1 1.36585 0.0761427 17.9421 -0.00424177 -0.00609331 0.0190916 3
39 1 2.6155 0.249449 17.2215 0.00865904 0.000603802 0.0475358 3
