ITEM: TIMESTEP
22600
ITEM: NUMBER OF ATOMS
60
ITEM: BOX BOUNDS pp pp pp
-1.4715758017245314e+01 1.5057610017245315e+01
-1.2710055654020760e+01 1.2664508654020761e+01
-5.0001035148846022e+01 1.0000103514884636e+02
ITEM: ATOMS id type x y z vx vy vz c_coord
8 1 -1.02239 -1.15691 14.7465 -0.00631321 -0.00854464 -0.0163634 3
28 1 -1.84467 -2.18535 15.2773 -0.000165408 -0.000490676 -0.0311704 3
42 1 -3.0191 -0.142184 15.2476 -0.0154376 -0.00303841 -0.0232939 3
44 1 -3.15673 -1.59223 15.4908 -0.00992894 -0.00441933 -0.0375695 3
7 1 0.4364 -1.16188 14.6918 -0.00590668 -0.000424972 -0.0141338 3
26 1 1.22938 -2.26497 15.1956 0.0126424 0.00481165 -0.0225751 3
38 1 2.3871 -0.208032 15.3259 0.000800949 -0.00390525 -0.0211793 3
40 1 2.49673 -1.66426 15.6025 0.00353388 0.00109683 -0.0177734 3
50 1 0.357403 -3.36471 15.7861 -0.00871809 0.0114508 -0.0168358 3
27 1 -1.66823 0.0665095 14.8613 -0.00375547 -0.00215818 -0.0148513 3
51 1 -1.04829 1.2399 14.6954 -0.00483443 -0.00843696 -0.0219344 3
32 1 -1.6375 2.36866 15.2559 0.00592013 0.0103665 -0.0267782 3
25 1 1.11727 0.135576 14.6765 0.000412717 -0.00591749 -0.0245024 3
49 1 0.333096 1.34153 14.5584 0.00720655 0.00207238 -0.021688 3
31 1 0.638222 2.46502 15.4635 -0.00269968 0.00471164 -0.0234053 3
52 1 -1.1177 -3.36547 15.7678 0.000190935 0.00901329 -0.0275178 3
20 1 -3.74418 -2.09843 16.6539 0.000245424 -0.0249943 -0.0289871 3
36 1 -1.75234 -3.80391 17.0123 -0.00386743 0.0109348 -0.0203414 3
4 1 -4.25899 -0.833846 17.3661 -0.0023377 0.00827097 -0.0275509 3
12 1 -0.653525 -4.12079 17.9185 -0.00714285 -0.0108156 -0.012402 3
60 1 -2.96828 -3.04122 17.4452 -0.00719964 0.00242693 -0.0283761 3
19 1 -3.98665 -1.32683 18.6939 0.000462704 -0.00339297 -0.0221127 3
58 1 -3.16981 -2.52023 18.7843 0.0094636 -0.00381365 -0.0310909 3
11 1 -0.694127 -3.60405 19.2848 -0.00973565 0.00122207 -0.019581 3
34 1 -1.9075 -2.76184 19.4553 0.00800479 -0.00288611 -0.0187657 3
24 1 -2.19794 -0.368326 19.6672 0.00639215 0.0070964 -0.0182458 3
48 1 -1.45411 -1.48628 19.8229 -0.00422841 -0.0100757 -0.0116694 3
46 1 -0.0921151 -1.5197 20.0758 0.00273223 -0.0129424 -0.00339368 3
43 1 -3.5699 -0.143109 19.3985 -0.000656576 -0.0102897 -0.0262413 3
16 1 2.57972 -1.98776 17.0244 0.00683547 0.000750085 -0.0425202 3
35 1 0.573184 -3.64202 17.1595 0.00344416 0.00789081 -0.0136395 3
2 1 2.72881 -0.81494 17.8823 0.000714488 -0.000258022 -0.0309496 3
59 1 1.67331 -2.88469 17.8186 -0.00426475 0.00287726 -0.0184198 3
15 1 2.34046 -1.20957 19.2545 -0.00234064 0.0110335 -0.0399174 3
57 1 1.61842 -2.49417 19.2146 0.00413613 -0.000798537 -0.0294847 3
33 1 0.354036 -2.80173 19.8447 -0.00256605 -0.00772337 -0.000155203 3
22 1 0.563813 -0.330718 20.3389 -0.0104681 0.00298743 -0.0109639 3
39 1 1.97577 -0.0740912 20.0668 -0.00792776 -0.00327531 -0.0245716 3
10 1 -0.507047 3.26542 15.7687 -0.00549722 -0.000423497 -0.0167466 3
18 1 -3.68283 0.960849 15.8317 0.00585571 -0.00333065 -0.0247192 3
56 1 -2.79552 2.14319 15.9375 -0.0179188 0.00623471 -0.0251132 3
3 1 -4.41192 0.581883 17.0307 -0.00627873 0.00568486 -0.0323648 3
9 1 -0.6144 3.45988 17.1903 0.00568754 -0.00498767 -0.0325237 3
54 1 -3.13791 2.64046 17.2497 -0.00443425 0.00195469 -0.0114794 3
17 1 -4.06585 1.71424 17.9441 -0.00457772 -0.00107335 -0.0273036 3
30 1 -1.9107 3.22185 17.7875 0.00464373 -0.00396726 -0.0155183 3
47 1 -1.4063 2.6759 19.0353 0.00352906 0.00163099 -0.0324552 3
41 1 -3.66215 1.27772 19.2269 -0.00568981 0.00266168 -0.0241678 3
23 1 -2.33031 1.77266 19.6579 0.00363343 0.00100786 -0.0245699 3
6 1 -1.52276 0.744094 19.8975 0.00241769 -0.00218996 -0.0104508 3
5 1 -0.163588 0.838121 20.245 -0.00859411 -0.00181018 -0.015462 3
45 1 0.0178514 2.68307 19.1239 0.00276864 -0.00712957 -0.0176364 3
14 1 2.63554 0.95234 16.1589 -0.00816539 -0.00399186 -0.0104239 3
55 1 1.87801 2.25918 16.1853 0.00466243 0.00619142 -0.0132087 3
1 1 2.78498 0.58573 17.5819 0.00842619 -0.00679819 -0.00320664 3
53 1 1.74097 2.57803 17.6348 -0.00348035 0.000654886 -0.0127918 3
13 1 2.45706 1.73142 18.475 0.00255152 -0.00564647 -0.00938991 3
29 1 0.491456 3.1833 18.0373 0.00484428 0.00628887 -0.0264299 3
37 1 1.97786 1.37297 19.7536 0.00143701 0.00392329 -0.0185338 3
21 1 0.705849 1.89968 20.0195 -0.00384548 0.00158688 -0.0169411 3
