ITEM: TIMESTEP
20800
ITEM: NUMBER OF ATOMS
60
ITEM: BOX BOUNDS pp pp pp
-1.4715758017245314e+01 1.5057610017245315e+01
-1.2710055654020760e+01 1.2664508654020761e+01
-5.0001035148846022e+01 1.0000103514884636e+02
ITEM: ATOMS id type x y z vx vy vz c_coord
8 1 -0.946971 -1.19317 15.1282 0.00623896 0.0129236 0.00284948 3
27 1 -1.67737 0.00593563 14.9547 0.00382914 0.00404949 0.00388823 3
7 1 0.423341 -1.28897 15.0531 -0.00679152 0.00179482 -0.00568259 3
51 1 -1.03486 1.28992 15.0639 -0.0116538 0.00724537 -0.00860503 3
49 1 0.420954 1.24124 15.2186 0.00479379 0.0102861 -0.00278075 3
25 1 1.12383 0.00522561 15.1226 -0.00017043 -0.0128589 -0.0061621 3
28 1 -1.62202 -2.12013 15.8776 -0.000823396 0.00396389 -0.0125855 3
42 1 -2.82133 -0.23832 15.848 -0.000515674 -0.0140437 -0.0130938 3
44 1 -2.67412 -1.44262 16.5624 -0.00362447 -0.00568268 -0.0138194 3
52 1 -1.08675 -3.30108 16.4618 0.00110626 -0.00863287 -0.0109335 3
20 1 -3.45565 -1.86948 17.5543 2.29415e-06 0.0110802 -0.0197501 3
36 1 -1.78995 -3.66126 17.7221 0.00301014 -0.00338558 -0.0117374 3
4 1 -4.33089 -0.871562 18.3 -0.012754 0.0016259 -0.0223536 3
12 1 -0.555816 -3.95506 18.4497 0.00084613 0.00288148 -0.0224614 3
60 1 -3.10585 -3.1181 18.1217 0.00258964 0.00144648 -0.00992012 3
19 1 -4.04008 -1.36294 19.6147 0.00373239 -0.0073756 -0.0120698 3
58 1 -3.30444 -2.61262 19.4988 0.00647478 -0.000744623 -0.0286813 3
11 1 -0.663229 -3.30102 19.6555 -0.00592774 -0.00571078 -0.00854232 3
34 1 -1.97175 -2.765 20.1137 -0.0128492 -0.00353603 -0.0123153 3
24 1 -2.12474 -0.300276 20.7918 -0.0026381 -0.0048091 -0.029719 3
48 1 -1.47439 -1.48502 20.5297 -0.00114448 0.000916061 -0.0293726 3
46 1 -0.058194 -1.50245 20.563 -0.00937004 0.00256681 -0.022892 3
43 1 -3.48998 -0.176933 20.3181 -0.00441233 0.00338294 -0.0143298 3
26 1 1.02923 -2.26731 15.9168 0.00686164 -0.0111371 -0.0107546 3
38 1 2.16727 -0.16361 16.0677 0.0146625 -0.00946401 -0.0227149 3
40 1 1.84615 -1.4071 16.7027 0.00527632 -0.000969439 -0.0204656 3
50 1 0.370685 -3.32348 16.6392 -0.00183307 0.00122844 -0.0263256 3
16 1 2.36625 -1.83219 17.8447 -0.00327195 0.00629471 -0.0228168 3
35 1 0.829529 -3.78484 17.894 -0.00637213 -0.000122911 -0.023821 3
2 1 3.03446 -0.851792 18.6495 -0.018571 -0.00398223 0.00133356 3
59 1 1.98349 -3.12103 18.4594 -0.00737611 0.00690689 -0.0140466 3
15 1 2.62424 -1.25451 19.9982 0.00146012 0.000195879 -0.0179783 3
57 1 1.93675 -2.54214 19.785 -0.0152336 -0.00252682 -0.0171489 3
33 1 0.512696 -2.64938 20.1167 -0.000836237 -0.00470082 -0.0179579 3
22 1 0.584158 -0.309993 20.9247 0.00833174 -0.00169594 -0.0173464 3
39 1 1.98445 -0.101357 20.6069 0.00483035 0.000734334 -0.00173067 3
10 1 -0.459138 2.88279 16.5537 -0.0142899 -0.00580608 -0.0220947 3
32 1 -1.61821 2.25883 15.9693 0.00819895 0.00644926 -0.00791056 3
18 1 -3.39662 0.777394 16.6389 -0.0058058 0.00604428 -0.0186385 3
56 1 -2.88267 2.1541 16.6628 -0.00667668 -0.00540224 -0.0102177 3
3 1 -4.19856 0.471798 17.8106 0.00245921 0.00991847 -0.0167152 3
9 1 -0.627257 3.5882 17.8496 0.00184829 0.00780254 -0.014406 3
54 1 -2.98054 2.68807 18.0571 -0.00432954 -0.0075481 -0.022863 3
17 1 -3.82014 1.64778 18.6517 -0.00384245 -0.00231809 -0.0171252 3
30 1 -1.90513 3.47628 18.6288 -0.00287272 -0.00575861 -0.0124353 3
47 1 -1.42687 3.12568 19.8683 -0.00138301 -0.0013135 -0.00924194 3
41 1 -3.40167 1.23759 19.955 -0.0168039 0.00722908 -0.029767 3
23 1 -2.16685 1.97703 20.2571 -0.0130735 0.000996449 -0.0152005 3
6 1 -1.45407 0.880295 20.8621 0.00376814 -0.0104196 -0.0228374 3
5 1 -0.0897752 0.907268 20.9005 0.00175042 0.000896594 -0.0184517 3
45 1 -0.0883332 3.01475 19.9426 -0.00681023 -0.0123245 -0.0129896 3
31 1 0.876185 2.37894 16.0507 0.00462762 0.0136918 -0.0223365 3
14 1 2.55034 0.83645 16.9131 0.00933303 -0.00565965 -0.0334928 3
55 1 1.99886 2.1664 16.9099 -0.00525871 0.00418756 -0.0122345 3
1 1 3.03983 0.601555 18.2644 -0.0107694 -0.00171909 -0.0190374 3
53 1 1.66492 2.61802 18.2267 -0.00959581 0.0150516 -0.0229799 3
13 1 2.37429 1.62495 18.9382 0.00219954 -0.00332846 -0.0198767 3
29 1 0.527871 3.37435 18.6787 -0.00436774 -0.0171528 -0.0193205 3
37 1 1.87445 1.29929 20.1392 0.0091104 0.00261457 -0.0138639 3
21 1 0.62511 1.92496 20.3939 -0.00257932 0.001287 -0.0140702 3
