ITEM: TIMESTEP
33400
ITEM: NUMBER OF ATOMS
60
ITEM: BOX BOUNDS pp pp pp
-1.4715758017245314e+01 1.5057610017245315e+01
-1.2710055654020760e+01 1.2664508654020761e+01
-5.0001035148846022e+01 1.0000103514884636e+02
ITEM: ATOMS id type x y z vx vy vz c_coord
8 1 -1.05522 -1.09717 7.59734 -0.000977768 0.00351518 -0.0417431 3
28 1 -1.93082 -2.20449 8.04725 -0.00463624 -0.00542176 -0.0425764 3
42 1 -3.09117 -0.230695 7.95863 0.0108128 -0.00686626 -0.0285705 3
44 1 -3.22827 -1.64607 8.34584 -0.0066304 0.0142254 -0.0379404 3
52 1 -1.21459 -2.94008 9.13163 0.00114824 -0.00239887 -0.0462166 3
20 1 -3.76256 -2.05648 9.67168 0.000489102 0.0017916 -0.0379472 3
50 1 0.160264 -2.92554 9.4166 0.00419876 -0.00207686 -0.0367005 3
7 1 0.304713 -1.09249 8.02358 0.00318506 -0.00298564 -0.0434211 3
26 1 0.968131 -2.01627 8.87966 0.00654168 -0.000997943 -0.0389043 3
38 1 1.95315 -0.118713 9.31065 6.94812e-05 0.00986451 -0.041691 3
40 1 1.99864 -1.49329 9.65187 -0.0130766 0.004193 -0.0266796 3
27 1 -1.79759 0.193024 7.45468 -0.00268987 0.00166571 -0.0296835 3
51 1 -1.16264 1.39849 7.89603 0.0133186 -0.00107392 -0.0260331 3
32 1 -1.7452 2.42547 8.72194 0.00115983 -0.000313484 -0.0415495 3
10 1 -0.749964 3.0362 9.61225 0.00953676 -0.00273984 -0.0437141 3
18 1 -3.43192 0.660177 9.10153 -0.00792557 -0.0047242 -0.0378991 3
56 1 -2.91973 1.95736 9.39871 0.00403444 0.0088147 -0.0304429 3
25 1 1.01343 0.124169 8.32628 0.00163713 -0.000710315 -0.0399053 3
49 1 0.157864 1.29932 8.33226 -0.00881244 -0.00502341 -0.0264868 3
31 1 0.40621 2.22826 9.33886 -0.0041225 0.00444959 -0.0487938 3
36 1 -1.821 -3.50708 10.2828 -0.00244539 -0.00412448 -0.0317362 3
4 1 -4.22278 -1.0029 10.5758 -0.0102859 0.0133999 -0.0412809 3
60 1 -3.12337 -3.0209 10.5727 0.0124117 -0.0230412 -0.0350154 3
12 1 -0.799174 -3.92302 11.1992 0.003934 0.01184 -0.0300741 3
19 1 -4.07072 -1.43181 11.922 0.003335 -0.00723628 -0.0420981 3
58 1 -3.24462 -2.69901 11.9615 0.000481815 0.00121338 -0.0318052 3
11 1 -1.03765 -3.7891 12.6048 -0.002354 0.000712234 -0.0240235 3
34 1 -2.27398 -3.06551 12.9928 -0.000222924 0.00381659 -0.0390913 3
43 1 -4.02557 -0.33798 12.9829 0.00171105 -0.00543516 -0.0409506 3
33 1 -0.0691858 -3.0453 13.3073 -0.00401401 -0.00956706 -0.0369914 3
24 1 -2.92858 -0.743605 13.952 -0.00680711 -0.0081827 -0.0321209 3
48 1 -2.16028 -1.97085 13.9581 -0.00240222 -0.00172024 -0.0375778 3
46 1 -0.692183 -1.96967 14.0504 0.00981041 -0.00343334 -0.0360066 3
22 1 0.058084 -0.722849 14.0534 -0.000254532 0.00239311 -0.0227393 3
16 1 2.24964 -1.86316 11.0329 -0.0136679 0.00147748 -0.0278492 3
35 1 0.469774 -3.58385 10.6301 -0.000829054 -0.0155027 -0.0350751 3
2 1 2.8153 -0.931337 11.9977 -0.0211304 -0.0101707 -0.0305757 3
59 1 1.5644 -3.01788 11.5317 0.000438132 -0.0066526 -0.041136 3
15 1 2.03821 -1.48071 13.0807 0.00423273 0.0147059 -0.0352204 3
57 1 1.2899 -2.67761 12.8953 -0.00800551 0.00685767 -0.0336255 3
39 1 1.34235 -0.311199 13.59 -0.00364639 -0.0127253 -0.0278805 3
3 1 -4.14161 0.380537 10.3651 -0.00310328 0.000759634 -0.0287933 3
54 1 -3.08167 2.23915 10.8344 -0.00301337 -0.00835735 -0.0225748 3
9 1 -0.855723 3.31394 11.0132 -0.00242711 0.000969293 -0.031005 3
17 1 -4.02432 1.38524 11.4618 -0.0028224 0.00108459 -0.0290979 3
30 1 -2.15536 3.04566 11.5802 -0.00460817 -0.00432649 -0.0317204 3
47 1 -1.99484 2.58125 12.9673 -0.00447033 -0.00630018 -0.0423684 3
41 1 -4.15471 1.07121 12.8825 -0.0217503 0.00819438 -0.0467062 3
45 1 -0.544771 2.63271 13.1343 -0.000174796 0.00143778 -0.0345043 3
23 1 -2.9065 1.62903 13.5489 0.00337534 0.00614363 -0.018428 3
6 1 -2.22719 0.464432 14.1007 0.00343891 0.00997859 -0.0420049 3
5 1 -0.706873 0.409818 13.9567 -0.00227265 0.00202542 -0.0192069 3
21 1 0.218808 1.52824 13.6076 0.00737804 0.000606617 -0.0224404 3
14 1 2.1383 0.842871 10.3713 -0.00857097 0.00589282 -0.0297491 3
55 1 1.41613 1.98197 10.3823 -0.00338344 0.00486895 -0.0394395 3
1 1 2.73363 0.503637 11.6367 -0.00744926 0.00206621 -0.0226412 3
53 1 1.4944 2.56002 11.6367 -0.0105704 -0.00116457 -0.0395838 3
29 1 0.203282 3.14542 11.9905 0.00305034 -0.0151568 -0.0177344 3
13 1 2.23519 1.60117 12.3906 -0.00444928 -0.0145535 -0.0234945 3
37 1 1.56207 1.11312 13.5273 0.00676924 0.0118625 -0.0213661 3
