ITEM: TIMESTEP
21400
ITEM: NUMBER OF ATOMS
60
ITEM: BOX BOUNDS pp pp pp
-1.4715758017245314e+01 1.5057610017245315e+01
-1.2710055654020760e+01 1.2664508654020761e+01
-5.0001035148846022e+01 1.0000103514884636e+02
ITEM: ATOMS id type x y z vx vy vz c_coord
8 1 -0.911696 -1.12867 15.1028 -0.00103632 -0.00506245 -0.00550956 3
28 1 -1.62611 -2.16661 15.7492 0.00017711 -0.0022844 -0.0153259 3
42 1 -2.85399 -0.230472 15.7094 -0.01203 0.0149194 -0.00699888 3
7 1 0.442415 -1.27498 14.9983 0.00361448 0.00418416 -0.00716129 3
25 1 1.09406 -0.004183 15.0492 -0.00127231 0.0115135 -0.00685749 3
26 1 1.08394 -2.27196 15.6782 -0.000347464 0.000392538 -0.0245258 3
38 1 2.29606 -0.25435 15.7917 0.00983999 0.00918281 -0.0214457 3
27 1 -1.69906 0.041996 15.017 0.0059118 0.00697621 -0.00085592 3
51 1 -1.00786 1.3536 14.9556 -0.0019775 0.00608707 -0.00278999 3
32 1 -1.63396 2.32914 15.8197 -0.0032447 0.0024381 -0.0145036 3
49 1 0.394461 1.27443 15.0999 -0.00333862 -0.0075614 -0.0193573 3
31 1 0.792932 2.50365 15.8053 -0.00841812 0.00803533 -0.00967365 3
44 1 -2.73703 -1.48248 16.2501 -0.0158836 -0.00314379 -0.0275287 3
52 1 -1.12573 -3.33552 16.2907 -0.000239146 -0.001785 -0.0215374 3
20 1 -3.55759 -1.82762 17.3685 -0.00260689 -0.0110559 -0.0281528 3
36 1 -1.795 -3.75308 17.5028 0.00182189 -0.0139735 -0.014403 3
4 1 -4.37691 -0.885793 18.0608 -0.00401225 0.0122112 -0.0168778 3
12 1 -0.525033 -3.9428 18.2889 -0.00553719 -0.000275119 -0.00928731 3
60 1 -3.0329 -3.06513 17.9025 0.00503856 0.00677753 -0.0191839 3
19 1 -3.9979 -1.3056 19.3465 0.00664512 -0.00515258 -0.0299088 3
58 1 -3.25685 -2.61482 19.2667 0.000173403 0.0100634 -0.0108611 3
11 1 -0.76997 -3.40667 19.5655 0.00231829 -0.0145954 -0.0102217 3
34 1 -1.97074 -2.76686 19.932 -0.00222951 0.00298326 -0.0188213 3
24 1 -2.18041 -0.370322 20.3829 0.000214341 -0.00238192 -0.0354041 3
48 1 -1.46384 -1.52483 20.1958 -0.00260893 0.000172268 -0.0237618 3
46 1 -0.121419 -1.4368 20.3318 0.00597005 0.00139584 -0.0172878 3
43 1 -3.56117 -0.143506 20.0589 -0.00569164 0.00613604 -0.0254917 3
40 1 1.98842 -1.47519 16.3675 0.0213348 -0.0171822 -0.0234108 3
50 1 0.337609 -3.37838 16.3047 0.00178772 -0.00753413 -0.0255645 3
16 1 2.41769 -1.82142 17.6826 0.00967424 0.00339424 -0.0168661 3
35 1 0.75582 -3.78733 17.6089 -0.00680101 0.00204614 -0.0275562 3
2 1 2.8488 -0.763836 18.5071 -0.0126947 0.00167324 -0.0223784 3
59 1 1.86819 -3.02175 18.2169 -0.0114274 0.00526065 -0.0206396 3
15 1 2.54223 -1.27136 19.8663 -0.0106735 -0.00346557 -0.00891536 3
57 1 1.83506 -2.51409 19.6105 -0.0080791 0.00360547 -0.0110525 3
33 1 0.410527 -2.67273 19.9712 -0.0140488 0.00308786 -0.0069081 3
22 1 0.639123 -0.341949 20.7052 -0.00409542 0.000108209 -0.0179208 3
39 1 2.06751 -0.0860005 20.5164 0.00754455 -3.30181e-05 -0.00988319 3
10 1 -0.456854 2.97904 16.4198 0.00130966 0.0103161 -0.0190227 3
18 1 -3.52013 0.792638 16.3732 -0.0146304 -0.00130159 -0.0206551 3
56 1 -2.86582 2.11037 16.5145 0.0167022 -0.0065329 -0.0285995 3
3 1 -4.20567 0.513159 17.5879 -0.00195561 -0.00248424 -0.0223975 3
9 1 -0.701059 3.57594 17.6228 0.00139691 -0.00413032 -0.0169 3
54 1 -2.98688 2.66997 17.788 -0.00392887 0.00117634 -0.0158266 3
17 1 -3.90497 1.69477 18.3795 -0.00608634 0.00702804 -0.0218894 3
30 1 -1.87127 3.36705 18.3002 -0.000552637 -0.012821 -0.0196916 3
47 1 -1.55679 3.03082 19.6899 -0.012693 -0.0176801 -0.0285687 3
41 1 -3.52663 1.26946 19.7149 -0.00888649 -0.000200349 -0.0185347 3
23 1 -2.29458 1.85898 20.1304 -0.00383776 -0.00379576 -0.0108962 3
6 1 -1.46145 0.84804 20.4864 -0.0073157 -0.00831884 -0.0342592 3
5 1 -0.094184 0.825441 20.6945 0.00108284 -0.0121716 -0.0168854 3
45 1 -0.0538108 2.94207 19.686 -0.00294664 -0.00338994 -0.0215108 3
14 1 2.69838 0.895532 16.6305 0.00474327 0.00891974 -0.0302176 3
55 1 1.9197 2.13968 16.6525 -0.00849995 -0.00650574 -0.0272562 3
1 1 2.86396 0.484035 17.9392 -0.0139018 -0.00237738 -0.0243623 3
53 1 1.72812 2.69352 17.9937 0.00786173 0.000917336 -0.0177448 3
13 1 2.42463 1.6495 18.6953 0.00438157 0.00391325 -0.0152123 3
29 1 0.376699 3.25742 18.466 -0.00710749 -0.0050113 -0.0272289 3
37 1 1.97144 1.29812 20.0438 0.00715145 0.00340949 -0.00918257 3
21 1 0.672417 1.8842 20.3029 0.0100371 -0.00539643 -0.00301711 3
