ITEM: TIMESTEP
23700
ITEM: NUMBER OF ATOMS
60
ITEM: BOX BOUNDS pp pp pp
-1.4715758017245314e+01 1.5057610017245315e+01
-1.2710055654020760e+01 1.2664508654020761e+01
-5.0001035148846022e+01 1.0000103514884636e+02
ITEM: ATOMS id type x y z vx vy vz c_coord
8 1 -1.07389 -1.1725 14.2421 -0.00208802 0.000766998 -0.0302251 3
28 1 -1.89901 -2.30096 14.4472 0.00507625 -0.00421458 -0.0427549 3
42 1 -3.14181 -0.248118 14.5611 0.00349062 -0.000189845 -0.0345577 3
44 1 -3.22617 -1.71845 14.7339 -0.00653659 0.00810559 -0.0281804 3
52 1 -1.18364 -3.17633 15.2922 -0.00682469 0.00451727 -0.013307 3
7 1 0.392918 -1.15387 14.221 -0.000999275 0.00500119 -0.0335238 3
26 1 1.17007 -2.27637 14.6514 -0.0143925 0.00013779 -0.0273826 3
38 1 2.29315 -0.0803809 14.8867 -0.0159622 0.00803846 -0.0232485 3
40 1 2.31941 -1.5323 15.176 -0.00825813 0.00677889 -0.00813621 3
50 1 0.244568 -3.06639 15.4704 -0.00632308 0.004534 -0.0176726 3
27 1 -1.72678 0.0756589 14.2562 0.000415151 0.00385256 -0.0409176 3
51 1 -1.06942 1.24184 14.2 -0.00512159 -0.00314068 -0.0212694 3
32 1 -1.70472 2.4226 14.7673 0.00257193 -0.000446017 -0.0181301 3
10 1 -0.450731 2.9492 15.3164 -0.00994936 -0.0134775 -0.0174638 3
18 1 -3.65946 0.895362 15.2514 0.00147388 -0.00257621 -0.037299 3
56 1 -3.05379 2.29096 15.3624 0.000616923 -0.00728229 -0.0358339 3
25 1 1.10461 0.0843381 14.111 -0.0009349 0.00487818 -0.0197116 3
49 1 0.334447 1.24571 14.2272 -0.00043424 -0.000584036 -0.0113474 3
31 1 0.811004 2.46132 14.8762 0.00517654 -0.0197464 -0.0363277 3
20 1 -3.8616 -2.10209 16.0022 0.00392174 -0.00282654 -0.0315374 3
36 1 -1.75642 -3.6425 16.5331 0.00116579 0.00447233 -0.0236762 3
4 1 -4.4016 -0.945917 16.8215 -0.0101593 0.00317653 -0.0209409 3
12 1 -0.677175 -3.98484 17.447 -0.0063346 0.0174466 -0.0345722 3
60 1 -3.10749 -3.1058 16.7384 -0.00536056 0.00104056 -0.0323584 3
19 1 -3.88543 -1.35189 18.1192 0.00625624 -0.00604911 -0.0326172 3
58 1 -3.10764 -2.60126 18.1208 0.00375574 -0.00244851 -0.0239216 3
11 1 -0.751435 -3.57674 18.8258 -0.00742556 0.00609418 -0.0195873 3
34 1 -2.00642 -2.83899 18.9923 -0.00764708 0.00184081 -0.0238369 3
24 1 -2.17901 -0.385428 19.4774 0.00056632 -0.00444204 0.00481381 3
48 1 -1.49022 -1.66901 19.7108 -0.00529893 -0.012927 -0.00600288 3
46 1 -0.0761983 -1.7547 20.0573 -0.0022871 -0.0105168 -0.00561621 3
43 1 -3.46653 -0.196314 18.9117 0.0100655 0.00127094 -0.0189363 3
16 1 2.62956 -1.93744 16.5013 0.00328299 0.019416 -0.0172907 3
35 1 0.60111 -3.61834 16.7786 0.00881113 0.000222852 -0.0251574 3
2 1 2.93998 -0.864362 17.4118 0.0136978 -0.00290719 -0.0130052 3
59 1 1.80476 -2.85566 17.2464 0.00778936 -0.0104945 -0.0285351 3
15 1 2.18819 -1.15865 18.6381 -0.000677423 0.00183306 -0.0245974 3
57 1 1.64516 -2.50489 18.5958 0.000376071 -0.00392063 -0.0254799 3
33 1 0.454321 -2.82508 19.4109 -0.000249785 0.0124619 -0.0281514 3
22 1 0.465339 -0.481437 20.063 -0.000534637 -0.00970186 -0.0161055 3
39 1 1.69305 -0.156335 19.464 -0.0119026 -0.00695012 -0.0269785 3
3 1 -4.36689 0.493503 16.4345 0.0044632 -0.0192614 -0.0152968 3
9 1 -0.580123 3.49958 16.5785 0.00553827 0.000140842 -0.0228222 3
54 1 -3.09617 2.67987 16.7583 -0.00342961 0.000334405 -0.0312085 3
17 1 -4.00271 1.67078 17.326 0.00892513 -0.000976048 -0.0304462 3
30 1 -1.86389 3.20106 17.2701 0.00523244 0.00319207 -0.0235728 3
47 1 -1.53418 2.82723 18.5595 -0.00855091 0.0164525 -0.021076 3
41 1 -3.54675 1.1826 18.5622 0.019022 -0.00413954 -0.025482 3
23 1 -2.34767 1.79578 19.1357 -0.00769796 -0.00344971 -0.0219782 3
6 1 -1.60118 0.837969 19.7927 -0.00296181 -0.00146823 -0.00258333 3
5 1 -0.19757 0.779773 20.06 -0.0106434 -0.00520504 -0.00561358 3
45 1 -0.0482812 2.85968 18.733 -0.00205546 0.00888581 -0.0100652 3
14 1 2.43897 0.892715 15.8791 -0.00152478 -0.00933924 -0.0284913 3
55 1 1.79677 2.13711 15.8648 -0.00262252 -0.00280933 -0.0107788 3
1 1 3.03125 0.536205 17.1569 0.0045341 -0.000687271 -0.0136131 3
53 1 1.80179 2.66313 17.2192 -0.0041691 0.00663873 -0.0213812 3
13 1 2.47912 1.62343 18.0164 0.00415573 -0.00730599 -0.0343084 3
29 1 0.513692 3.26876 17.49 0.000165409 -0.00109803 -0.0239747 3
37 1 1.89632 1.27943 19.2667 -0.00543928 -0.0108136 -0.0342323 3
21 1 0.610464 1.87655 19.5478 -0.0107574 0.010444 -0.0314124 3
