ITEM: TIMESTEP
45600
ITEM: NUMBER OF ATOMS
60
ITEM: BOX BOUNDS pp pp pp
-1.4715758017245314e+01 1.5057610017245315e+01
-1.2710055654020760e+01 1.2664508654020761e+01
-5.0001035148846022e+01 1.0000103514884636e+02
ITEM: ATOMS id type x y z vx vy vz c_coord
8 1 -0.938459 -0.949054 -0.988673 0.000205723 0.0133702 -0.0438628 3
28 1 -1.80978 -2.07172 -0.488494 -0.00891513 -0.000998903 -0.0338465 3
42 1 -2.99962 -0.00149205 -0.316628 -0.00112967 0.0060498 -0.0342245 3
44 1 -2.98168 -1.42587 -0.0160647 0.0165557 0.00535342 -0.0332767 3
52 1 -1.22605 -3.07214 0.460402 0.0031311 -0.00587583 -0.0336794 3
20 1 -3.58318 -2.03013 1.18736 -0.00117901 0.0114139 -0.0390673 3
50 1 0.116366 -3.02202 0.96944 -0.0142903 0.00483071 -0.025445 3
36 1 -1.92786 -3.59679 1.59779 -0.00132025 -0.00916374 -0.0359637 3
4 1 -4.28125 -1.09013 2.06489 -0.00576327 0.0105508 -0.0339003 3
60 1 -3.10535 -3.05175 1.98879 -0.00436736 -0.00411243 -0.0390358 3
12 1 -1.114 -3.95024 2.70727 0.0129314 -0.00420649 -0.0287744 3
35 1 0.0862649 -3.4237 2.30542 0.0142555 -0.00612673 -0.035036 3
19 1 -4.54752 -1.79108 3.35274 -0.00647182 0.00208521 -0.037504 3
58 1 -3.59932 -2.88345 3.22476 0.00484379 -0.0093209 -0.0296496 3
7 1 0.288147 -1.0114 -0.27021 0.00155148 0.00765123 -0.0353517 3
26 1 0.963965 -1.96619 0.492524 -0.0105269 0.00361848 -0.0348138 3
40 1 1.716 -1.41021 1.54305 -0.0211013 0.00360667 -0.0230889 3
38 1 1.78305 -0.0107532 1.28355 -0.00236461 0.00634345 -0.0452376 3
16 1 2.01363 -2.04032 2.83693 -0.0081149 -0.00146225 -0.0285832 3
59 1 1.00597 -2.96905 3.26499 0.00827646 -0.0189637 -0.0290453 3
27 1 -1.7337 0.246872 -0.93217 0.00197843 0.00910043 -0.0263691 3
51 1 -1.14742 1.41413 -0.328132 0.00118262 -0.00336285 -0.0424116 3
32 1 -1.73147 2.29059 0.652505 -0.000670543 -0.0139883 -0.0413968 3
18 1 -3.50122 0.736715 0.769336 0.00612781 -0.0127293 -0.0262728 3
10 1 -0.830695 2.62154 1.76637 0.00127764 -0.00924425 -0.0226678 3
56 1 -3.09159 2.02881 1.20059 0.00403094 -0.00118468 -0.0322932 3
3 1 -4.14386 0.227406 1.91315 -0.00686801 -0.000570197 -0.0341332 3
54 1 -3.4481 2.19323 2.54927 0.000708691 0.00905932 -0.0271295 3
17 1 -4.33482 1.08351 3.04287 -0.0205587 0.00387331 -0.0390297 3
9 1 -1.31751 3.01113 3.08145 -0.00520997 -0.00120226 -0.0331091 3
30 1 -2.65474 2.89967 3.57849 -0.00384386 0.0010015 -0.0315128 3
25 1 0.793395 0.288142 0.204603 0.00197723 -0.00249076 -0.0340834 3
49 1 0.172542 1.52879 0.155667 -0.00023967 -0.000969975 -0.0278511 3
31 1 0.365169 2.27386 1.31076 0.0100189 -0.00345992 -0.0407641 3
14 1 1.94134 0.885965 2.40161 -0.00393852 0.00624299 -0.042597 3
55 1 1.29337 2.09886 2.4045 0.00701028 0.00500258 -0.0346527 3
11 1 -1.56615 -3.76629 4.10645 0.000140793 -0.00114169 -0.038351 3
34 1 -2.88666 -3.30302 4.3983 -0.0114129 0.0006479 -0.0425587 3
43 1 -4.45627 -0.910034 4.50024 -0.00270638 0.00279395 -0.0328289 3
33 1 -0.590306 -3.14621 5.00584 0.0102385 0.00943192 -0.030617 3
24 1 -3.68497 -1.23827 5.69629 -0.00956408 -0.0141017 -0.0367595 3
48 1 -2.7427 -2.33024 5.40379 -0.00203132 0.00786915 -0.018439 3
46 1 -1.42667 -2.31663 5.86505 0.000693938 0.00285278 -0.0404209 3
22 1 -0.849428 -1.07682 6.18739 -0.00495401 -0.0156055 -0.0372663 3
2 1 2.14474 -1.13483 3.94626 0.00770568 -0.00980725 -0.0262712 3
15 1 1.39748 -1.67683 5.00512 0.00317832 0.00398409 -0.0355074 3
57 1 0.680081 -2.79442 4.57458 -0.00124664 0.00198684 -0.039222 3
39 1 0.512786 -0.821385 5.61711 -0.0123855 -0.0152667 -0.0313301 3
29 1 -0.380779 2.84457 4.12896 0.0128161 -0.00690159 -0.0381308 3
47 1 -2.67208 2.38145 4.95551 -0.00106385 -0.00380044 -0.0399957 3
41 1 -4.43859 0.651496 4.40268 -0.00853097 -0.0075187 -0.0250741 3
45 1 -1.26023 2.34122 5.30102 -0.00750916 0.0120435 -0.0375655 3
23 1 -3.63866 1.32216 5.34396 -0.00859782 0.00210492 -0.0383778 3
6 1 -3.06533 0.13496 6.01126 0.00258818 -0.00731068 -0.0321141 3
5 1 -1.64443 0.0664942 6.26636 0.00151689 -0.000819723 -0.0262594 3
21 1 -0.719921 1.17921 5.9912 -0.013247 -0.00338492 -0.0444121 3
1 1 2.10507 0.324237 3.75659 0.00296145 0.00588919 -0.0129326 3
53 1 0.951363 2.34911 3.77792 -0.00134832 0.0124564 -0.0316958 3
13 1 1.43418 1.21045 4.57053 8.39531e-05 -0.00607103 -0.0185304 3
37 1 0.634047 0.624854 5.73064 -0.0128357 -0.00224174 -0.0497795 3
