ITEM: TIMESTEP
41100
ITEM: NUMBER OF ATOMS
60
ITEM: BOX BOUNDS pp pp pp
-1.4715758017245314e+01 1.5057610017245315e+01
-1.2710055654020760e+01 1.2664508654020761e+01
-5.0001035148846022e+01 1.0000103514884636e+02
ITEM: ATOMS id type x y z vx vy vz c_coord
8 1 -1.04328 -1.00041 2.3983 0.000770446 -0.00475023 -0.0272315 3
28 1 -1.85575 -2.1007 2.93395 0.0116959 0.00220017 -0.0277088 3
42 1 -3.09495 -0.0373988 3.06649 0.00329079 0.00707745 -0.0219613 3
44 1 -3.08013 -1.45242 3.35121 -0.00814235 0.00103954 -0.0361005 3
52 1 -1.23697 -3.2173 3.65065 0.00241992 -0.00844412 -0.031358 3
7 1 0.271128 -0.941459 2.91964 0.000904877 0.0137489 -0.0323091 3
26 1 0.8324 -1.93464 3.70819 0.00294296 0.013474 -0.0312731 3
27 1 -1.81465 0.218395 2.49622 0.00167536 0.000303969 -0.0252307 3
51 1 -1.09112 1.47951 2.78639 0.0179254 -0.000686008 -0.0219614 3
32 1 -1.78493 2.16692 3.86176 -0.0182956 0.00130553 -0.0301189 3
18 1 -3.78902 0.753173 3.91251 -0.00808983 0.00823849 -0.033511 3
25 1 0.954924 0.215439 3.34395 0.0108104 -0.00861844 -0.0434608 3
49 1 0.326058 1.55369 3.16648 0.00576376 -0.00919709 -0.0461917 3
20 1 -3.84571 -1.9835 4.3918 -0.017401 -0.000504283 -0.0406438 3
36 1 -1.99002 -3.71113 4.76952 -0.00766282 -0.00775437 -0.0425345 3
4 1 -4.53347 -1.12019 5.17962 -0.00822368 -0.00224441 -0.034634 3
60 1 -3.24294 -3.07532 5.1564 -0.00100387 -0.00349422 -0.0434732 3
12 1 -0.998836 -4.03912 5.79628 -0.000954801 -0.0058087 -0.0311403 3
19 1 -4.48223 -1.72062 6.43188 0.00717325 0.00302434 -0.0401321 3
58 1 -3.58668 -2.83871 6.53891 0.00381848 -0.00522587 -0.0187569 3
11 1 -1.2653 -3.59974 7.06617 0.00486453 0.00132291 -0.0416443 3
34 1 -2.54872 -3.10206 7.43679 -0.00954919 0.011894 -0.046448 3
43 1 -4.25001 -0.74741 7.47806 0.00300669 0.00173343 -0.0483346 3
33 1 -0.331786 -3.15833 8.04165 -0.00569768 0.0133571 -0.0491685 3
50 1 0.093382 -3.07543 4.04224 -0.00287646 -0.0181866 -0.0419247 3
24 1 -3.2042 -0.932172 8.42949 0.00685284 -0.0012789 -0.0474021 3
48 1 -2.47214 -2.13796 8.48485 -0.0011321 0.00312546 -0.0223942 3
46 1 -1.06372 -2.13519 8.86552 -0.00577954 -0.00373065 -0.0191907 3
22 1 -0.455071 -0.891829 9.08458 -0.00384533 0.00631312 -0.0111506 3
40 1 1.86914 -1.43292 4.60557 0.00712907 0.00919735 -0.0405602 3
16 1 2.12078 -1.99217 5.90764 0.0082646 0.0122304 -0.0348174 3
35 1 0.326131 -3.62675 5.36488 -0.000174852 -0.00713396 -0.0429988 3
59 1 1.18815 -2.95447 6.28826 -0.0181671 -0.00745517 -0.0339805 3
2 1 2.29377 -0.990838 6.92946 -0.00578122 -0.00595526 -0.0412209 3
15 1 1.65406 -1.60565 8.08324 -0.00591444 0.00266969 -0.0288567 3
57 1 1.03986 -2.84519 7.68321 0.00198063 -0.00968335 -0.0315891 3
39 1 0.937962 -0.693114 8.8209 -0.000315966 -0.000374679 -0.0280686 3
10 1 -0.769604 2.80437 4.72231 -9.55058e-05 0.0029282 -0.0445682 3
56 1 -3.14543 2.01894 4.22652 -0.00759784 -0.00283905 -0.0378975 3
3 1 -4.71667 0.274872 4.9477 -0.0120417 0.00321345 -0.0382984 3
54 1 -3.5716 2.50417 5.55285 -0.0112574 -0.00548904 -0.0345773 3
9 1 -1.1343 3.10076 5.95058 0.00871834 0.00710552 -0.0360467 3
17 1 -4.27619 1.354 5.82055 -0.000239913 0.00770289 -0.0330482 3
30 1 -2.47578 2.8192 6.48398 -0.0117091 -0.00687854 -0.0292174 3
29 1 -0.171885 2.84897 6.99511 -0.0120379 0.0023905 -0.0220191 3
47 1 -2.39218 2.29357 7.71525 -0.00378451 -0.0157602 -0.0329078 3
41 1 -4.10542 0.65592 7.10141 0.00796527 -0.0192236 -0.0476062 3
45 1 -0.979346 2.41903 8.10759 -0.00867354 0.00708523 -0.0411589 3
23 1 -3.16066 1.24226 8.02467 0.0155705 0.00763744 -0.0514863 3
6 1 -2.54451 0.239472 8.77587 0.00339812 0.00609618 -0.0291536 3
5 1 -1.24301 0.23764 9.20748 0.00655472 -0.0114727 -0.0105776 3
21 1 -0.410358 1.26891 8.83947 -0.00709216 -0.00462862 -0.0232013 3
38 1 1.85454 -0.0102143 4.34706 -0.0139217 -0.0002196 -0.0333052 3
31 1 0.599784 2.43424 4.2599 0.0035753 -0.00585063 -0.0301243 3
14 1 2.1985 0.945258 5.32868 0.0106238 -0.00515424 -0.0220226 3
55 1 1.63478 2.26276 5.2636 -0.0110217 0.00574844 -0.0268147 3
1 1 2.33578 0.389281 6.58059 -0.0102467 -0.00474138 -0.042612 3
53 1 1.21621 2.48823 6.65657 -0.00279211 0.0075297 -0.0304476 3
13 1 1.62649 1.27519 7.4487 -0.00668823 -0.00507694 -0.0308395 3
37 1 0.880135 0.714344 8.49373 0.00419194 -0.00402295 -0.0226885 3
