ITEM: TIMESTEP
45700
ITEM: NUMBER OF ATOMS
60
ITEM: BOX BOUNDS pp pp pp
-1.4715758017245314e+01 1.5057610017245315e+01
-1.2710055654020760e+01 1.2664508654020761e+01
-5.0001035148846022e+01 1.0000103514884636e+02
ITEM: ATOMS id type x y z vx vy vz c_coord
8 1 -0.944227 -0.931203 -1.0733 -0.00586261 0.00431848 -0.0402941 3
28 1 -1.81886 -2.07226 -0.554835 0.000734899 0.00052832 -0.0328973 3
42 1 -3.00188 0.00853257 -0.383737 -0.000954473 0.00404956 -0.0329879 3
44 1 -2.95102 -1.4175 -0.0803856 0.0135511 0.0033862 -0.03104 3
52 1 -1.22329 -3.08068 0.389116 -0.000775749 -0.00269446 -0.0376342 3
20 1 -3.58921 -1.99877 1.10931 -0.00474042 0.0193453 -0.0385639 3
50 1 0.090166 -3.00995 0.914888 -0.0115619 0.0072388 -0.0290447 3
36 1 -1.92774 -3.61745 1.52664 0.00141863 -0.0114147 -0.0351373 3
4 1 -4.29236 -1.08251 1.9989 -0.00544975 -0.00306465 -0.0319045 3
60 1 -3.11607 -3.06033 1.90614 -0.00640349 -0.00425175 -0.043499 3
12 1 -1.09243 -3.95803 2.65386 0.00843415 -0.00358704 -0.0248329 3
35 1 0.117518 -3.4371 2.23723 0.0168775 -0.00734781 -0.0331761 3
19 1 -4.55557 -1.78277 3.27437 -0.00107632 0.00605737 -0.0406358 3
58 1 -3.59432 -2.90038 3.17206 -0.000455264 -0.00696089 -0.0237432 3
7 1 0.294994 -0.988723 -0.341274 0.00442077 0.0142024 -0.036362 3
26 1 0.939993 -1.96369 0.425855 -0.0133259 -0.00114594 -0.0316999 3
40 1 1.67681 -1.40297 1.49731 -0.0180717 0.00367609 -0.0227745 3
38 1 1.77396 0.00455688 1.19177 -0.00583831 0.00849796 -0.0454996 3
16 1 1.99543 -2.04024 2.77822 -0.0100129 0.00147195 -0.0302657 3
59 1 1.02435 -3.00835 3.20226 0.0101889 -0.0202147 -0.0335788 3
27 1 -1.73064 0.266487 -0.984373 0.000921313 0.00995355 -0.02602 3
51 1 -1.14417 1.41203 -0.411152 0.00255981 0.00137771 -0.0405505 3
32 1 -1.73576 2.26274 0.576296 -0.00356835 -0.0135056 -0.0345129 3
18 1 -3.48966 0.71361 0.715561 0.00557094 -0.0100145 -0.0276059 3
10 1 -0.836032 2.6039 1.71371 -0.00652152 -0.00842414 -0.03 3
56 1 -3.07777 2.02584 1.13045 0.00934518 -0.00194517 -0.0372338 3
3 1 -4.15949 0.227863 1.8445 -0.0088408 0.00116167 -0.0343398 3
54 1 -3.45168 2.20865 2.50263 -0.00474342 0.00566099 -0.0204322 3
17 1 -4.37132 1.09765 2.96466 -0.015595 0.0103545 -0.03872 3
9 1 -1.32298 3.01053 3.01377 -9.18266e-05 0.0005287 -0.034651 3
30 1 -2.66847 2.89906 3.51353 -0.00957909 -0.00112536 -0.033762 3
25 1 0.80279 0.278472 0.13996 0.00692939 -0.00611233 -0.0312417 3
49 1 0.173423 1.52384 0.0988873 0.000895211 -0.0039459 -0.0291321 3
31 1 0.388669 2.26803 1.23145 0.0130952 -0.00216368 -0.0385992 3
14 1 1.93641 0.891751 2.31726 -0.000800101 -0.000915671 -0.0407053 3
55 1 1.3059 2.11072 2.332 0.00550113 0.0070477 -0.0373827 3
11 1 -1.56232 -3.76734 4.02764 0.00340835 0.000593796 -0.0398517 3
34 1 -2.90673 -3.30185 4.31019 -0.00757238 0.000552424 -0.0447318 3
43 1 -4.46086 -0.902616 4.43745 -0.0022113 0.00414396 -0.0307651 3
33 1 -0.579202 -3.12948 4.94504 0.000618114 0.00688222 -0.0308094 3
24 1 -3.70001 -1.25658 5.61861 -0.00546152 -0.00397189 -0.0403342 3
48 1 -2.74987 -2.31403 5.36961 -0.00519004 0.00741872 -0.0165842 3
46 1 -1.42126 -2.31093 5.78283 0.00458331 0.00249123 -0.0416035 3
22 1 -0.85364 -1.11275 6.11032 0.000594011 -0.0196826 -0.0394811 3
2 1 2.16158 -1.15215 3.89255 0.00914156 -0.00648807 -0.0275498 3
15 1 1.40285 -1.67083 4.93418 0.00195184 0.00185052 -0.0352605 3
57 1 0.680864 -2.79026 4.49755 0.00200237 0.00217204 -0.0377475 3
39 1 0.482639 -0.842794 5.5615 -0.0172356 -0.00623186 -0.0246312 3
29 1 -0.356952 2.82781 4.05964 0.0103918 -0.00941626 -0.0313653 3
47 1 -2.67167 2.37585 4.87521 0.00104316 -0.00217402 -0.0396315 3
41 1 -4.4594 0.63019 4.34401 -0.0120188 -0.0130447 -0.033858 3
45 1 -1.27015 2.36503 5.221 -0.00214992 0.0112497 -0.0420145 3
23 1 -3.6514 1.32392 5.27319 -0.00390632 -0.00103008 -0.0324066 3
6 1 -3.06442 0.11251 5.94566 -0.00193483 -0.0143372 -0.0338071 3
5 1 -1.64432 0.0673303 6.21496 -0.00149721 0.00145803 -0.0251556 3
21 1 -0.741159 1.1743 5.90042 -0.00820635 -0.00112512 -0.0465063 3
1 1 2.11433 0.330944 3.72228 0.00606309 0.000573144 -0.0220572 3
53 1 0.945628 2.37475 3.7178 -0.00366127 0.0126492 -0.0286821 3
13 1 1.42829 1.20073 4.54246 -0.00547139 -0.00337228 -0.0105976 3
37 1 0.605663 0.619489 5.62591 -0.0157759 -0.00337431 -0.054208 3
