ITEM: TIMESTEP
51800
ITEM: NUMBER OF ATOMS
60
ITEM: BOX BOUNDS pp pp pp
-1.4715758017245314e+01 1.5057610017245315e+01
-1.2710055654020760e+01 1.2664508654020761e+01
-5.0001035148846022e+01 1.0000103514884636e+02
ITEM: ATOMS id type x y z vx vy vz c_coord
8 1 -0.990045 -0.865315 -5.08841 0.00501294 -0.0043806 -0.0306903 3
28 1 -1.78294 -1.96981 -4.58846 0.0120718 -0.0114689 -0.0503059 3
44 1 -3.05885 -1.40565 -4.283 0.00359956 0.00605871 -0.0310564 3
42 1 -3.09517 0.00602296 -4.53912 0.0105808 0.00724699 -0.0382834 3
52 1 -1.22937 -3.04427 -3.81759 -0.00704776 0.0120701 -0.04611 3
20 1 -3.8436 -2.04271 -3.31124 0.00835516 0.00428943 -0.022034 3
50 1 0.0764478 -3.08962 -3.20019 -0.00791147 -0.00351769 -0.036995 3
36 1 -2.0607 -3.69749 -2.82975 -0.00191051 0.00932903 -0.0415717 3
7 1 0.219368 -0.87384 -4.30218 -0.00665682 -0.01082 -0.0554917 3
26 1 0.650897 -1.91251 -3.35222 -0.00449497 0.0214399 -0.027449 3
38 1 1.62692 -0.0145178 -2.55804 0.000704448 0.00385191 -0.0289965 3
27 1 -1.72856 0.365663 -4.93246 0.0113389 0.00922636 -0.0519468 3
51 1 -1.21912 1.48417 -4.22201 -0.00612182 -0.0100711 -0.0413386 3
32 1 -1.85079 2.36979 -3.3336 0.0125814 -0.0155193 -0.0421542 3
18 1 -3.74807 0.845085 -3.5572 -0.00356887 -0.00271125 -0.0298191 3
49 1 0.137615 1.58765 -3.82193 0.0144795 0.00983594 -0.0467512 3
56 1 -3.19773 2.07068 -3.02184 -0.00329866 -0.00174636 -0.0344041 3
3 1 -4.58457 0.249337 -2.53324 -0.00955008 -0.0125269 -0.030648 3
25 1 0.877538 0.359197 -3.75349 -0.00594286 -0.0042499 -0.031723 3
4 1 -4.57664 -1.19881 -2.3858 -0.000497877 -0.000643281 -0.029486 3
60 1 -3.34441 -3.12446 -2.45221 -0.000664988 -0.0095431 -0.0348374 3
12 1 -1.20777 -4.10074 -1.71311 0.000865494 -0.00794285 -0.0388692 3
19 1 -4.53883 -1.84924 -1.06889 -0.00256592 0.00565509 -0.0375199 3
58 1 -3.88297 -3.14717 -1.1945 0.00752084 0.00223533 -0.0402613 3
11 1 -1.69405 -3.76816 -0.386712 0.00171549 -0.00132264 -0.0286183 3
34 1 -3.05949 -3.37083 -0.0868009 0.0106146 0.00469007 -0.0319422 3
43 1 -4.63189 -0.966306 0.0254431 -0.00213819 -0.00302294 -0.0368435 3
33 1 -0.875464 -3.15715 0.579891 -0.0136504 -0.00394713 -0.0314047 3
35 1 0.147084 -3.73405 -1.94812 0.0104593 -0.0026352 -0.0350502 3
24 1 -3.79337 -1.36157 1.19738 0.000371422 0.0050538 -0.0260888 3
48 1 -3.05268 -2.63166 1.1848 0.00115308 0.00524038 -0.0213529 3
46 1 -1.70601 -2.447 1.49562 0.00399912 -0.00414979 -0.0391862 3
22 1 -1.24067 -1.33092 2.05894 -0.00436651 -0.0112373 -0.0407522 3
6 1 -3.28042 -0.192401 1.66727 -0.0205764 -0.00379803 -0.026048 3
5 1 -1.92848 -0.117354 2.117 0.00680862 0.0117176 -0.0304792 3
40 1 1.43901 -1.36907 -2.38987 -0.0173312 0.00493194 -0.032067 3
16 1 1.78277 -2.05101 -1.07609 -0.0168007 0.00444747 -0.0396305 3
59 1 0.999068 -3.27978 -0.921823 0.00340438 -0.000635784 -0.0255447 3
2 1 2.10967 -1.17522 0.0515637 -0.015621 0.000919357 -0.0415765 3
57 1 0.519139 -3.03675 0.428618 -0.004381 -0.00343962 -0.0323041 3
15 1 1.04096 -1.71195 0.883667 0.00850963 0.0016962 -0.0283209 3
39 1 0.131386 -0.918839 1.7028 -0.00622346 0.00634592 -0.0332622 3
10 1 -1.11445 2.76262 -2.26324 -0.00753439 -0.0123347 -0.0210135 3
54 1 -3.75172 2.17187 -1.68204 0.00907233 0.0174483 -0.0281821 3
17 1 -4.69243 1.12737 -1.38783 0.000865871 -0.00272227 -0.0281325 3
9 1 -1.48325 3.15917 -0.923733 -0.00588626 -0.000992433 -0.0330545 3
30 1 -2.86438 2.67902 -0.585181 0.00751138 -0.00339411 -0.0309375 3
29 1 -0.600337 2.83045 0.202339 0.00673413 0.00767567 -0.0304352 3
47 1 -3.00034 2.1485 0.73582 -0.0179399 0.000207046 -0.0397305 3
41 1 -4.59521 0.403621 -0.107806 -0.0197613 -0.0045597 -0.0325336 3
45 1 -1.54791 2.13992 1.12155 -0.0064278 -0.0126093 -0.020645 3
23 1 -3.77416 0.959263 0.969788 -0.00450686 0.00234609 -0.0252442 3
21 1 -1.01948 1.03618 1.87246 -0.00460978 -0.00797814 -0.0314898 3
31 1 0.162527 2.1268 -2.59286 0.00138106 -0.000340322 -0.0322145 3
14 1 2.00805 0.904382 -1.50963 0.000539692 -0.00669436 -0.0271284 3
55 1 1.04769 1.99567 -1.47424 0.0117061 0.00178013 -0.0259987 3
1 1 2.10815 0.294457 -0.148969 0.00298213 -0.0148784 -0.0245431 3
53 1 0.65147 2.16097 -0.127025 -0.0130019 -0.00267833 -0.0377555 3
13 1 1.29709 1.19113 0.765859 -0.0129273 0.0137701 -0.0346728 3
37 1 0.236429 0.512553 1.433 -0.00734209 -0.0131874 -0.037174 3
