ITEM: TIMESTEP
41300
ITEM: NUMBER OF ATOMS
168
ITEM: BOX BOUNDS pp pp pp
-1.4715758017245314e+01 1.5057610017245315e+01
-1.2710055654020760e+01 1.2664508654020761e+01
-5.0001035148846022e+01 1.0000103514884636e+02
ITEM: ATOMS id type x y z vx vy vz c_coord
92 1 -10.8759 -9.29201 19.6992 -0.0142178 0.00427032 0.00353986 3
93 1 -10.8065 -6.75806 20.1319 0.00227527 0.00383013 -0.00967471 3
103 1 -9.42543 -9.29845 19.7683 0.00436594 -0.00350288 0.00830246 3
104 1 -8.73696 -8.07515 19.6258 -4.95637e-05 -0.000462354 0.00425843 3
105 1 -9.35961 -6.80496 19.7527 0.00429641 -0.00459118 0.00184655 3
122 1 -7.24934 -7.99175 19.2493 0.00375175 -0.0204024 -0.00441584 3
132 1 -6.56965 -9.1902 19.7859 0.00982012 -0.00177826 -0.0130752 3
143 1 -5.15499 -9.2116 19.7239 0.00105645 0.00730096 -0.0211204 3
144 1 -4.3908 -8.04981 19.289 0.0105605 -0.00675105 -0.000379 3
162 1 -2.95734 -8.07251 19.064 0.0160412 -0.00733076 0.00563197 3
172 1 -2.31467 -9.3444 19.3471 -0.000121964 0.00413876 0.0175947 3
183 1 -0.94449 -9.38184 19.2668 0.00289134 -0.000179447 0.00291165 3
184 1 -0.323001 -8.06506 18.995 0.0023533 -0.00203097 0.0190192 3
133 1 -6.53526 -6.80762 18.8216 0.00900611 -0.00617733 -0.00697571 3
145 1 -5.04199 -6.81757 18.7045 0.00492709 -0.00724935 0.0200804 3
173 1 -2.35112 -6.75139 18.775 -0.00237395 0.013791 0.0197782 3
185 1 -0.927123 -6.80354 18.5772 0.0103652 0.000451741 0.0331763 3
202 1 1.08226 -7.94346 19.3881 4.42367e-06 -0.00387499 0.00817714 3
212 1 1.89883 -9.23367 19.6452 -0.00561936 -0.00444557 0.0104392 3
223 1 3.27179 -9.29391 19.6923 -0.0141264 -0.0100915 0.00590005 3
224 1 4.03386 -8.05636 19.4403 0.00370281 -0.0124183 -0.0047377 3
242 1 5.4482 -8.06212 19.6093 -0.00798209 0.000513223 -0.0010664 3
252 1 6.17597 -9.21555 19.906 -0.00163715 0.000100881 -0.0139819 3
253 1 6.18053 -6.88859 19.3249 0.0029293 -0.00887445 0.00234758 3
225 1 3.39738 -6.8584 19.1168 0.00722457 -0.00252529 0.0115158 3
213 1 1.93808 -6.81325 19.1334 0.00177355 0.00461503 0.018324 3
265 1 7.63035 -6.77847 19.279 0.00820359 -0.000270513 0.0022764 3
263 1 7.60197 -9.21981 19.8923 0.000631346 0.00949624 -0.00552094 3
264 1 8.27144 -7.98141 19.6125 0.00530589 0.000646995 0.0136706 3
282 1 9.6919 -8.07712 19.76 0.00609316 -0.00438913 -0.0119727 3
292 1 10.4634 -9.26298 19.8177 -0.0130987 -0.00622432 0.00182609 3
293 1 10.4454 -6.83591 19.696 -0.00391979 -0.000140194 0.0109589 3
94 1 -10.8908 -4.29284 19.5533 0.00365032 -0.0166996 0.00042399 3
95 1 -10.908 -1.83991 19.6528 0.0112268 -0.0113304 -0.00628467 3
106 1 -8.70979 -5.57556 19.1936 0.00815438 0.00245743 0.00464619 3
107 1 -9.46165 -4.3401 19.1268 0.00887382 0.000650648 0.0111653 3
108 1 -8.93413 -3.05604 18.8201 -0.00263692 -0.0163899 -0.00428628 3
109 1 -9.63822 -1.78542 18.9523 -0.00710722 -0.0111716 -0.0056927 3
110 1 -9.04785 -0.489843 18.5796 -0.00245598 -0.000350781 -0.0285621 3
123 1 -7.37644 -5.59861 18.7338 0.00613881 -0.0156297 0.00720469 3
124 1 -7.49608 -3.08135 18.4444 0.0022476 0.00109039 -0.00883745 3
125 1 -7.579 -0.595552 18.4746 -0.000195125 -0.00187374 -0.00607969 3
186 1 -0.13899 -5.54818 18.6008 0.000318023 0.00839204 0.0213883 3
134 1 -6.78031 -4.36236 18.396 0.0135548 0.00504703 0.00163876 3
135 1 -6.82219 -1.80674 18.5447 -0.00741673 0.00137471 -0.00282161 3
146 1 -4.51434 -5.55508 18.1947 0.00269752 -0.00824144 -0.000350705 3
147 1 -5.26629 -4.29826 18.2187 -0.0128352 -0.00626494 0.00998811 3
163 1 -3.08505 -5.57575 18.3716 -0.000798663 -0.0117363 0.0101259 3
148 1 -4.58047 -3.09063 18.3252 -0.020109 -0.0052327 0.0012604 3
149 1 -5.25387 -1.86145 18.4984 0.00328632 -0.00894761 -0.0087043 3
174 1 -2.31002 -4.29336 18.4349 0.010547 0.00916472 0.00444872 3
164 1 -3.0297 -3.07788 18.478 -0.00524697 -0.00255167 0.000685573 3
187 1 -0.9148 -4.35223 18.8291 -0.00180697 0.00373935 0.0134426 3
150 1 -4.59526 -0.610014 18.5951 0.00164665 -0.0113808 -0.0112858 3
175 1 -2.35456 -1.91592 18.9579 0.00732212 -0.00180412 0.015392 3
165 1 -3.10696 -0.668331 18.8774 0.00218064 -0.00498857 -0.00177306 3
189 1 -0.964401 -1.93801 19.4683 0.0184039 0.00837284 0.0326904 3
188 1 -0.195254 -3.14526 19.3603 0.0065572 -0.0078141 0.0177358 3
190 1 -0.15408 -0.703466 19.7912 0.00879705 -0.00580274 0.0198862 3
243 1 5.59487 -5.61905 18.9231 0.00586929 -0.00553046 0.0142439 3
203 1 1.32954 -5.5774 18.7212 0.00668291 0.0104227 0.025128 3
254 1 6.32052 -4.36703 18.8275 0.000954837 -0.0107648 0.0134556 3
226 1 4.17985 -5.60161 18.855 0.0180389 0.000720001 0.00432375 3
227 1 3.48063 -4.27933 18.9032 -0.00195185 -0.00521223 0.0177266 3
244 1 5.76504 -3.08672 18.9025 0.00494406 0.00205439 0.00468569 3
214 1 2.08967 -4.33763 19.0852 0.0190447 0.00741292 0.0245779 3
255 1 6.49245 -1.80297 18.9474 0.00667363 -0.0150128 3.27318e-05 3
228 1 4.29872 -3.0567 19.0974 0.00581619 -0.00682363 0.00933438 3
245 1 5.74208 -0.614239 19.1958 0.00200295 0.00488408 0.0052777 3
229 1 3.52288 -1.89351 19.6239 0.0109823 -0.00181867 0.0287424 3
230 1 4.32693 -0.630245 19.6811 0.0211355 -0.00358718 0.0130876 3
204 1 1.2825 -3.16149 19.4295 0.00949244 0.00595332 0.0138346 3
215 1 2.0895 -1.98616 19.7383 0.0172265 0.00367743 0.0172244 3
205 1 1.34169 -0.707999 19.8918 0.0147627 -0.00994362 0.0136858 3
269 1 7.94404 -1.78664 18.9831 0.00941755 -0.00325403 0.000648081 3
267 1 7.71279 -4.30475 18.9849 0.000718109 0.00499298 -0.00879873 3
283 1 9.80369 -5.5845 19.4668 -0.00296513 -0.00667443 -0.00368763 3
284 1 9.83402 -3.06155 19.4419 0.00603318 -0.0149434 0.00920044 3
285 1 10.0408 -0.617988 18.9951 -0.000477781 -0.0164085 -0.000745531 3
294 1 10.5228 -4.30858 19.6066 0.0160766 -0.0150521 -0.00843204 3
295 1 10.5725 -1.81475 19.5612 0.0110455 0.00433345 -0.00284124 3
268 1 8.48317 -3.08319 18.9696 -0.00547415 -0.00511462 0.00865299 3
270 1 8.60566 -0.564125 18.6593 0.00411986 -0.0186861 -0.00614447 3
266 1 8.37746 -5.54495 19.2137 -0.00356834 0.00751262 0.000113883 3
96 1 -10.9996 0.60344 19.5689 -0.00568522 0.00247891 0.00222634 3
97 1 -10.8953 3.04112 19.7754 0.00439993 -0.00477985 -0.00550697 3
98 1 -10.8276 5.49771 19.877 0.00643384 0.00480304 -0.0110543 3
111 1 -9.81231 0.631229 18.6951 -0.00730186 0.0076478 -0.0341002 3
112 1 -9.04102 1.85432 18.5514 -0.0131788 0.00934091 -0.00150926 3
113 1 -9.52328 3.02128 19.16 -0.00174533 -0.00600227 0.00517942 3
114 1 -8.75766 4.23133 19.2384 0.00593274 -0.0044806 0.00776523 3
115 1 -9.36721 5.50724 19.4996 -0.00576734 -0.00561866 0.0107049 3
127 1 -7.40383 4.30881 18.7498 0.0089946 0.00535089 0.0142057 3
126 1 -7.59268 1.81415 18.3938 0.000246599 0.00273866 -0.00639795 3
138 1 -6.64828 5.49531 18.5517 0.00963447 0.0081191 0.00872981 3
136 1 -6.87419 0.63715 18.2839 -0.00176867 0.00407588 -0.0192144 3
178 1 -2.32895 5.53831 18.3849 -0.000855046 0.00928861 0.00938619 3
195 1 -0.89739 5.50801 18.7214 0.00888082 -0.0117139 0.0087166 3
155 1 -5.19785 5.49461 18.3743 0.00533546 0.000816543 0.0141904 3
137 1 -6.82354 3.06751 18.492 -0.00913791 0.00600481 -0.00455659 3
153 1 -5.4231 3.10543 18.372 -0.00301802 0.0113395 -0.00956721 3
154 1 -4.51851 4.27445 18.3152 -0.00792881 0.00345157 0.00247658 3
167 1 -3.10663 4.26227 18.3369 0.00769041 -0.000227792 0.00666261 3
152 1 -4.63533 1.83965 18.4036 0.00727539 -0.00320354 0.00682568 3
151 1 -5.38134 0.672277 18.5134 0.00530558 -0.00341972 -0.00916894 3
194 1 -0.192204 4.22047 19.0337 0.00506255 -0.0231024 0.0237168 3
177 1 -2.34361 3.05871 18.8053 0.0122976 -0.00840743 0.00181378 3
166 1 -3.15006 1.81101 18.7735 0.00510585 0.00674115 0.0172326 3
193 1 -0.905888 3.03783 19.075 0.000842856 0.0121371 0.0128271 3
176 1 -2.42509 0.600555 19.2119 -0.00356389 -0.004376 0.0131484 3
191 1 -0.889792 0.577865 19.5237 0.00753121 -0.000361193 0.0287623 3
192 1 -0.106801 1.77632 19.3909 0.00936354 0.00715448 0.0197371 3
258 1 6.2633 5.48048 18.8509 -0.000739809 0.0151385 0.00979931 3
235 1 3.38676 5.52807 19.063 -0.0238713 0.0106073 0.0160021 3
218 1 1.97864 5.50687 19.184 0.00810286 -0.00163239 0.0280802 3
257 1 6.34467 3.02313 18.7467 -0.00495432 0.000965751 0.0123389 3
247 1 5.61683 4.23157 18.6336 0.0133153 -0.00125031 0.00294157 3
234 1 4.16074 4.18629 18.8555 -0.00305514 0.0161156 0.00891305 3
207 1 1.27543 4.27387 19.3318 0.0129917 -0.00604115 0.0190738 3
246 1 5.6563 1.79024 19.1294 0.0123482 -0.00317463 0.00527636 3
233 1 3.46482 2.98502 19.4506 0.0141512 0.0174075 0.0156169 3
232 1 4.27357 1.85165 19.5523 0.0175042 -0.017075 0.00496438 3
256 1 6.42952 0.620918 18.9725 0.00260647 0.00743365 0.00749307 3
217 1 1.99063 3.11519 19.6688 0.0303622 -0.00633089 0.0263527 3
231 1 3.6016 0.552804 19.8392 0.00701653 0.00362652 0.0144913 3
206 1 1.37781 1.76774 19.6757 0.0206919 0.00268327 0.0248466 3
216 1 2.12111 0.512789 19.9319 0.0116907 0.00653416 0.0247904 3
271 1 7.8636 0.605168 18.7524 0.00750787 0.00592775 0.00718721 3
273 1 7.75194 3.00218 18.8175 -0.00384988 0.00977589 0.0123357 3
275 1 7.66247 5.53417 19.095 0.0103231 -0.00375138 0.00965399 3
286 1 10.039 1.90982 19.1307 -0.00847527 0.00312507 -0.000980982 3
287 1 9.71387 4.26742 19.4617 0.0208429 0.00144266 0.00300646 3
296 1 10.7043 0.621453 19.2664 -0.0107058 0.0067788 0.00267822 3
297 1 10.4996 3.06017 19.6273 0.0101152 -0.00492245 -0.00304807 3
298 1 10.498 5.47019 19.7291 0.00024865 0.0110888 -0.00461445 3
272 1 8.60659 1.91358 18.868 0.0160564 0.0127236 -0.00115926 3
274 1 8.3549 4.29027 19.1274 -0.00679358 0.00789759 0.00931869 3
99 1 -10.7831 7.95597 19.8811 -0.0015723 0.00136612 0.00397797 3
116 1 -8.58901 6.66199 19.5245 -0.00159379 0.0137164 0.00297425 3
117 1 -9.36011 7.98022 19.527 0.00431489 -0.00552967 -0.00208231 3
118 1 -8.6471 9.19447 19.4868 -0.0189974 -0.0020971 0.0100062 3
128 1 -7.22889 6.64801 19.101 0.0130846 0.0147969 0.00198211 3
129 1 -7.26538 9.15088 19.5304 -0.00307542 0.00841975 -0.0122723 3
139 1 -6.57757 7.9513 19.3691 0.0120483 0.0162158 -0.0164902 3
157 1 -5.14144 7.91641 19.4435 0.00551461 -0.00490925 -0.00891377 3
158 1 -4.46831 9.19311 19.6315 0.00599158 0.00378939 3.20909e-05 3
169 1 -3.09685 9.33674 19.3786 0.00361193 0.00488542 0.000590666 3
179 1 -2.46255 8.06262 18.901 0.00162451 0.000770381 0.012377 3
197 1 -1.05677 8.04017 19.1916 0.00860121 0.0104983 0.0211409 3
198 1 -0.265209 9.2113 19.5491 0.00552349 -0.00496013 0.0120667 3
156 1 -4.55362 6.69207 18.8687 0.0106345 0.0118018 0.0105507 3
168 1 -3.11779 6.80929 18.5933 0.017166 0.00263038 0.00889996 3
196 1 -0.267155 6.80653 18.9775 -0.0108611 -0.00664256 0.0227133 3
209 1 1.14036 9.2796 19.767 0.000617298 5.85076e-05 0.00341401 3
219 1 1.84911 8.07718 19.2907 0.0110696 -0.00587898 0.00832263 3
237 1 3.29007 7.99618 19.5589 -0.0123966 0.00702502 -0.00702172 3
238 1 4.04313 9.23177 19.6048 -0.0042372 0.00269571 -0.013028 3
249 1 5.49049 9.24957 19.7179 -0.00366481 0.0166054 -0.000741378 3
259 1 6.15371 7.93812 19.4892 -0.0149381 0.00802053 -0.00171563 3
248 1 5.53925 6.70493 19.2103 0.000599955 -0.00178055 -0.0043984 3
236 1 4.06853 6.77484 19.3913 0.00117987 -0.00134916 0.00647515 3
208 1 1.17718 6.79673 19.2664 0.00502477 -0.00497559 0.0243509 3
277 1 7.59157 7.91363 19.6363 -0.00228771 0.00365053 -0.00184905 3
276 1 8.38028 6.73559 19.4745 -0.00439758 0.00600099 0.00411963 3
278 1 8.42467 9.1533 19.702 0.00494987 -0.0057975 0.00544079 3
288 1 9.78145 6.69516 19.6501 0.00397846 0.00162184 0.00482417 3
289 1 9.81923 9.15992 19.8297 -0.00572275 -0.000894648 0.000477784 3
299 1 10.5025 7.9627 19.8376 0.00780523 0.00917583 0.00762481 3
