ITEM: TIMESTEP
43800
ITEM: NUMBER OF ATOMS
168
ITEM: BOX BOUNDS pp pp pp
-1.4715758017245314e+01 1.5057610017245315e+01
-1.2710055654020760e+01 1.2664508654020761e+01
-5.0001035148846022e+01 1.0000103514884636e+02
ITEM: ATOMS id type x y z vx vy vz c_coord
92 1 -10.9001 -9.26859 20.2257 0.0175437 -0.00215331 -0.00118843 3
93 1 -10.8083 -6.7848 19.7507 -0.00776999 0.00601761 0.0138427 3
103 1 -9.40969 -9.24334 20.0198 0.00169147 -0.000726552 0.000299859 3
104 1 -8.74035 -8.02743 19.6075 0.00279552 -0.00164344 0.000608644 3
105 1 -9.3998 -6.76585 19.4583 -0.0218062 0.0139948 -0.00114802 3
122 1 -7.28539 -7.91894 19.3291 -0.000597413 0.00212574 0.000814603 3
132 1 -6.60248 -9.21145 19.3643 0.000207967 0.0162789 0.0130986 3
143 1 -5.16647 -9.32025 19.3768 -0.00079997 0.00827295 0.00587706 3
144 1 -4.42677 -8.08575 19.1417 0.0110077 0.00427959 0.00498359 3
162 1 -3.00991 -8.02133 19.5514 0.00636856 -0.00993291 0.00886775 3
172 1 -2.30185 -9.19319 20.044 -0.00281457 -0.00054699 0.0120027 3
183 1 -0.840416 -9.20283 20.2783 -0.00503836 -0.00161461 0.00723265 3
184 1 -0.126874 -7.98794 20.1644 -0.00538648 -0.00891463 0.0235602 3
133 1 -6.37533 -6.77168 19.1482 -0.00548393 0.00680063 0.00449895 3
145 1 -5.05383 -6.80064 18.8602 -0.00524369 0.00222151 0.00567497 3
173 1 -2.21825 -6.79331 19.4744 -0.00698932 0.00382902 0.0262091 3
185 1 -0.762435 -6.7086 19.8767 0.00766888 -0.00473647 0.0189199 3
202 1 1.3971 -7.95001 19.9101 -0.0111729 0.00370779 0.024033 3
212 1 2.06654 -9.19897 19.8216 -0.0145324 0.0138471 -0.00315018 3
223 1 3.45816 -9.15804 19.852 -0.00312006 0.00223246 -0.00263675 3
224 1 4.30076 -7.95646 19.5922 -0.00585453 -0.00500505 0.00343039 3
242 1 5.71182 -8.12158 19.3722 -0.0111392 -0.00490217 0.0126373 3
252 1 6.25881 -9.31066 19.6856 -0.0106665 0.00722243 -0.000840444 3
253 1 6.38566 -6.84392 19.3768 -0.000600761 0.00545581 0.000567506 3
225 1 3.65239 -6.67429 19.6406 -0.00192187 0.00710721 0.0200589 3
213 1 2.18039 -6.78128 19.7988 0.0115173 0.00206111 0.0221634 3
265 1 7.8443 -6.86852 19.4878 0.00507743 -0.00325005 -0.00744259 3
263 1 7.63223 -9.3218 19.7169 0.00379006 -0.00271186 -0.000509278 3
264 1 8.4281 -8.16131 19.6044 0.000434144 0.00496082 -0.000431119 3
282 1 9.74729 -8.06453 20.0047 -0.00249103 0.00389996 0.00530358 3
292 1 10.4727 -9.2392 20.0252 -0.0136914 0.000652176 0.00283874 3
293 1 10.5011 -6.88118 19.828 0.00835671 0.000590732 0.00302589 3
94 1 -10.818 -4.26517 19.9676 -0.00356338 0.00193983 -0.012929 3
95 1 -10.8863 -1.81192 19.5609 -0.00177618 -0.000432298 0.00139061 3
106 1 -8.64319 -5.46246 19.2705 0.0127132 0.0020118 -0.0105377 3
107 1 -9.37788 -4.26053 19.429 -0.00219953 0.0106816 -0.00020331 3
108 1 -8.71835 -3.08847 18.956 0.00536596 -0.00500084 0.0153858 3
109 1 -9.50236 -1.84494 18.9299 0.00380476 0.00744704 0.0260247 3
110 1 -8.7408 -0.652894 18.7157 0.0191439 -0.00791485 0.0232415 3
124 1 -7.26936 -3.10972 18.4728 0.000785315 0.0075638 -0.00257741 3
125 1 -7.32467 -0.746603 18.041 0.0147303 -0.00346802 0.0128543 3
123 1 -7.22443 -5.48382 19.0397 0.00124187 0.0109833 0.0106477 3
186 1 -0.00476471 -5.49098 20.1355 0.0103484 -0.025388 0.0199098 3
134 1 -6.51319 -4.29511 18.6967 0.00826369 0.0173458 0.0114142 3
135 1 -6.49455 -1.94383 17.9896 0.00327908 0.00386935 0.0083867 3
146 1 -4.2944 -5.50494 19.1081 0.00694788 0.00512274 0.00879568 3
147 1 -4.99141 -4.29403 18.8251 -0.0150494 0.00269994 0.0201173 3
163 1 -2.82523 -5.51174 19.324 -0.0017091 0.00657095 0.0279063 3
148 1 -4.23757 -3.05723 18.738 0.00966108 0.00251907 0.0129247 3
149 1 -5.0393 -1.88305 18.3234 0.00646905 -0.00681192 0.00223139 3
174 1 -2.11769 -4.24661 19.4424 0.00105927 0.0100098 0.0245209 3
164 1 -2.9037 -3.08177 19.2199 0.00563293 -0.0125334 0.0122851 3
187 1 -0.680537 -4.22911 19.6925 -0.0117912 -0.00447157 0.0253554 3
150 1 -4.46719 -0.647822 18.5869 0.00461983 -0.00775488 0.010339 3
175 1 -2.20853 -1.80366 19.4215 0.00328874 -0.00256451 0.00301136 3
165 1 -3.01251 -0.653194 19.1891 -0.000421942 0.00287998 0.00293675 3
189 1 -0.752525 -1.70226 19.6553 0.0170245 0.00480433 0.00129275 3
188 1 -0.0150205 -2.96063 19.6597 0.00402797 -0.0130987 0.00739494 3
190 1 0.0374726 -0.587755 20.1853 0.00118289 0.00948793 -0.000430973 3
243 1 5.64294 -5.60761 19.4336 0.00164378 0.00336786 0.0133298 3
203 1 1.45487 -5.5421 20.0447 0.00321418 -0.00255621 0.0132392 3
254 1 6.36505 -4.43369 19.323 -0.0121178 0.00726309 0.0169023 3
226 1 4.27993 -5.45593 19.7467 0.00390625 -0.00571443 0.0111078 3
227 1 3.56571 -4.22835 20 0.00945057 0.000340859 0.0209496 3
244 1 5.73968 -3.1235 19.558 -0.0016402 0.00765298 0.0158505 3
214 1 2.15359 -4.23374 20.1185 -0.00287213 0.00276945 0.0261866 3
255 1 6.38564 -1.92341 19.2841 -0.00850821 0.00496065 0.0187483 3
228 1 4.35042 -3.0757 19.958 -0.00756396 0.0179853 0.0110734 3
245 1 5.75716 -0.599427 19.5642 -0.0140332 0.00293354 0.00187752 3
229 1 3.57556 -1.84657 20.0039 0.00637328 0.00432853 0.00514617 3
230 1 4.39837 -0.576634 19.9135 -0.000121462 0.00295416 -0.00577926 3
204 1 1.38633 -3.01311 20.1039 -0.00372943 -0.00708529 0.00566843 3
215 1 2.21807 -1.91542 20.2634 0.00142328 0.000310103 0.00140566 3
205 1 1.48858 -0.641059 20.4375 -0.00462767 -0.00459692 -0.00203162 3
269 1 7.79585 -1.95452 19.0755 -0.0101883 0.00752485 0.0186198 3
267 1 7.80744 -4.42487 19.3243 -0.00494334 0.0121102 0.00208357 3
283 1 9.93781 -5.6145 19.6435 0.00191936 -0.000248339 0.0069379 3
284 1 9.91217 -3.13476 19.2075 0.00810175 0.00389344 0.00812437 3
285 1 9.7981 -0.562844 19.6073 -0.0167215 0.00160608 0.00457982 3
294 1 10.6053 -4.32465 19.7423 -0.00777163 -0.00971057 0.000196679 3
295 1 10.5646 -1.84551 19.5707 -0.013925 -0.00190035 0.00793411 3
268 1 8.51384 -3.24201 18.9451 -0.00286118 0.0180747 -0.0077067 3
270 1 8.43876 -0.677631 19.1836 -0.00618445 0.00455527 0.00675393 3
266 1 8.56027 -5.60198 19.4507 -0.0107555 0.00575989 0.0122315 3
96 1 -10.7498 0.593089 19.6912 0.00552588 -0.00357508 0.0194892 3
97 1 -10.8399 3.06692 19.7921 -0.0137543 0.00401361 0.00032053 3
98 1 -10.7435 5.53358 20.0058 -0.0117016 0.00152003 -0.00152817 3
111 1 -9.33405 0.606998 19.2255 0.0106008 0.0034595 0.0229902 3
112 1 -8.60372 1.80577 18.8927 -0.0107849 0.00453847 0.0266127 3
113 1 -9.40371 2.98908 19.2218 0.00112023 0.00610552 0.00757876 3
114 1 -8.62759 4.29024 19.1835 -0.00766811 -0.00477078 -0.00862909 3
115 1 -9.37494 5.53548 19.4825 -0.00104197 -0.0131634 -0.00660936 3
126 1 -7.24292 1.73072 18.4523 0.00325774 -0.0172765 0.0145906 3
127 1 -7.13033 4.2395 18.9473 -0.00479353 -0.00687104 0.00628002 3
138 1 -6.4123 5.49323 19.2247 -0.00392385 -0.018422 -0.0114642 3
136 1 -6.58257 0.503721 18.0972 0.0132462 -0.00361681 -0.00569466 3
178 1 -2.12655 5.46021 19.5512 0.00432117 -0.00190517 0.0289088 3
195 1 -0.71304 5.46084 19.9287 0.000705604 0.00964469 0.0230598 3
155 1 -4.99153 5.50562 19.049 -0.00615523 0.00125981 0.00506072 3
137 1 -6.41817 3.04014 18.61 0.0146802 0.00188972 0.0173671 3
153 1 -5.03806 3.05087 18.7814 0.00172243 -0.00626429 0.0161965 3
154 1 -4.17515 4.25066 19.0911 0.00656202 -0.0166785 0.0243974 3
167 1 -2.76934 4.202 19.176 0.0081162 0.00157662 0.0289183 3
152 1 -4.32245 1.80795 18.5866 0.000976603 0.000389275 0.00093739 3
151 1 -5.13406 0.61612 18.4935 0.0121983 0.00687504 0.011083 3
194 1 -0.0327282 4.18059 19.9123 0.0181092 0.0150614 0.0288426 3
177 1 -2.14691 2.85214 19.4545 -0.000981881 0.00651545 0.0149661 3
166 1 -2.91825 1.76167 19.0244 0.00399384 -0.00169203 0.000653537 3
193 1 -0.730039 2.9339 19.8519 -0.000656448 0.00947814 0.0215735 3
176 1 -2.24503 0.513075 19.4877 -0.0101865 0.00972795 0.000259334 3
191 1 -0.843408 0.53987 19.9772 -0.000964006 -0.00547008 0.00556856 3
192 1 -0.0422192 1.7105 20.2802 0.0107149 -0.0022623 0.00177734 3
258 1 6.27732 5.57812 19.5387 0.00400161 -0.00817393 0.0156432 3
235 1 3.6647 5.48271 19.8164 0.00301121 -0.011395 0.0129819 3
218 1 2.32915 5.48303 20.0564 -0.000537253 0.0167612 0.0068165 3
257 1 6.467 3.04989 19.468 -0.011451 -0.0100451 0.0196607 3
247 1 5.74293 4.32021 19.8033 0.00775395 -0.016977 0.0223919 3
234 1 4.35138 4.19977 20.0088 0.00347758 -0.00209498 0.0144332 3
207 1 1.45498 4.28057 20.1628 -0.00246036 -0.00615153 0.00385871 3
246 1 5.70912 1.8596 19.5362 -0.00778527 -0.0116202 0.0167752 3
233 1 3.57763 3.04035 19.9593 0.00724169 0.0222721 0.0115517 3
232 1 4.31683 1.88808 19.8855 -0.0124676 -0.0181244 0.01041 3
256 1 6.42667 0.594318 19.2865 -0.0148916 0.000863956 0.00500451 3
217 1 2.0815 2.94949 20.1794 0.00323969 0.00305029 0.0134414 3
231 1 3.72327 0.588887 20.0663 -0.0125171 -0.00254717 0.00146813 3
206 1 1.42976 1.73337 20.4523 -0.00906541 -0.00635748 -0.00390696 3
216 1 2.31395 0.569257 20.4129 -0.0135267 0.00916067 0.0028492 3
271 1 7.78081 0.617812 19.1853 -0.00319847 -0.00201021 0.0215548 3
273 1 7.87422 3.08498 19.1838 -0.00901127 0.00881315 0.0087216 3
275 1 7.73566 5.64655 19.4837 0.00306252 -0.0147604 -0.00165898 3
286 1 9.90985 1.8141 19.5359 -0.00952552 -0.00822908 0.00957864 3
287 1 9.83997 4.34536 19.4962 -2.72247e-05 -0.000920788 0.00622985 3
296 1 10.5339 0.661636 19.7724 0.0110017 0.00534455 0.00954812 3
297 1 10.5492 3.1463 19.6932 0.00276312 0.000199552 0.0144218 3
298 1 10.5989 5.47616 19.8806 -0.00546983 -0.00441108 0.00281149 3
272 1 8.54336 1.80765 19.3099 -0.00626727 0.00260815 0.0156192 3
274 1 8.42643 4.36491 19.3521 -0.00778745 -0.00274581 5.73312e-05 3
99 1 -10.8305 7.96301 19.9886 -0.00105639 0.0102645 0.00455646 3
116 1 -8.5841 6.73176 19.5361 0.00468783 -0.01211 0.0103715 3
117 1 -9.29865 7.91598 19.8535 -0.00196086 -0.0250866 -0.00211242 3
118 1 -8.58308 9.13195 19.8882 0.00529223 0.000178311 0.000192919 3
129 1 -7.16864 9.10455 19.7046 0.00454624 0.00452467 0.0115608 3
128 1 -7.2003 6.70692 19.2257 0.0156952 0.00795555 0.00683175 3
139 1 -6.47999 7.96176 19.2184 0.00193204 -0.00589128 0.0132111 3
157 1 -5.08501 8.02633 18.9607 0.00568941 -0.00902076 0.0133348 3
158 1 -4.37978 9.13337 19.5079 -0.0153595 -0.0035293 0.00676243 3
169 1 -3.04403 9.09686 19.8579 -0.0012097 0.0133847 -0.000450409 3
179 1 -2.23544 7.8429 19.805 -0.0056188 0.0111297 0.0230897 3
197 1 -0.780951 7.81404 20.0104 -0.018254 -0.00485782 0.0168271 3
198 1 -0.155616 9.11472 19.9731 -0.00124086 0.0038415 0.00422904 3
156 1 -4.33723 6.75289 18.955 0.00541831 0.000192759 0.00705549 3
168 1 -2.90595 6.66484 19.3965 -7.18122e-07 0.00100436 0.017294 3
196 1 0.102436 6.66405 20.002 0.0188326 0.000527402 0.0192143 3
209 1 1.2778 9.16609 20.1479 0.0101279 -0.00311118 0.0101122 3
219 1 2.11043 7.98883 19.8771 0.000410704 0.000577057 0.00861978 3
237 1 3.52519 7.95758 19.6327 0.00816697 0.0137018 0.0204611 3
238 1 4.06506 9.20237 19.7697 0.00847533 -0.013037 0.00209409 3
249 1 5.5039 9.2176 19.6474 -0.00330195 -0.00171897 0.00456031 3
259 1 6.28053 8.05669 19.3927 0.0158015 -0.00273757 0.0073393 3
248 1 5.61142 6.80794 19.2983 0.0157737 -0.00555899 0.00499882 3
236 1 4.17804 6.71284 19.4077 0.0118457 -0.0108551 0.0189355 3
208 1 1.5734 6.68359 20.1239 -0.00161832 0.00463277 0.00915505 3
277 1 7.70276 8.04863 19.6793 -0.00400608 -0.00505209 0.00281504 3
276 1 8.48572 6.83384 19.6269 -0.00711224 -0.00128907 0.0052028 3
278 1 8.4487 9.25185 19.9545 -0.00978985 -0.00853607 -0.00597471 3
288 1 9.88736 6.77498 19.8167 -0.00261909 -0.00663163 -5.63673e-05 3
289 1 9.86427 9.24504 20.1419 0.00499207 0.0027574 0.00234079 3
299 1 10.5076 7.96926 19.9855 -0.0056712 -0.000678362 0.0040003 3
