ITEM: TIMESTEP
16200
ITEM: NUMBER OF ATOMS
168
ITEM: BOX BOUNDS pp pp pp
-1.4715758017245314e+01 1.5057610017245315e+01
-1.2710055654020760e+01 1.2664508654020761e+01
-5.0001035148846022e+01 1.0000103514884636e+02
ITEM: ATOMS id type x y z vx vy vz c_coord
92 1 -10.7316 -9.20557 20.1154 -0.00247519 -0.000931338 0.0220165 3
93 1 -10.8633 -6.7421 20.4727 -0.00698202 0.00595254 0.0162218 3
103 1 -9.33132 -9.10217 20.463 -0.00183934 -0.00513269 0.0272228 3
104 1 -8.70648 -7.9967 21.1865 -0.0091497 -0.0101189 0.0274511 3
105 1 -9.53094 -6.73979 21.2062 -0.00157409 -0.00491645 0.0271267 3
122 1 -7.24324 -8.1784 21.5267 -0.00860776 -0.00533891 0.00924509 3
132 1 -6.56772 -9.38688 20.9149 0.00103812 0.00875407 -0.00727287 3
133 1 -6.56552 -6.9498 22.0041 -0.00638513 -0.00196671 0.02227 3
143 1 -5.14747 -9.32123 20.8189 0.00145083 0.00250507 -0.00743451 3
144 1 -4.45666 -8.19081 21.4872 0.00697155 0.0110277 -0.000646311 3
162 1 -3.06875 -8.14724 21.4748 0.00797241 0.00917405 -0.0094319 3
172 1 -2.3357 -9.23696 20.6561 0.0102207 0.00910879 -0.00333591 3
183 1 -0.899504 -9.22101 20.6659 0.00225645 0.00903253 -0.0105347 3
184 1 -0.228402 -8.22006 21.4892 0.000247923 0.00856658 -0.00403638 3
202 1 1.2284 -8.24898 21.531 0.000644537 0.0105566 -0.00358338 3
212 1 1.94988 -9.22911 20.7217 -0.0056401 0.00528286 0.00598448 3
223 1 3.36603 -9.24038 20.6029 -0.000603107 -0.00371283 -0.0105615 3
224 1 4.11774 -8.249 21.4604 0.00762524 -0.000764238 -0.0170535 3
242 1 5.57041 -8.29504 21.5781 -0.000904565 0.00954231 0.00294232 3
252 1 6.27158 -9.41933 20.9534 0.00376822 0.00492344 -0.00158452 3
265 1 7.82274 -6.92408 21.9608 0.0120781 -0.0010531 0.0261658 3
263 1 7.7 -9.37817 20.9346 0.00297407 0.00415089 0.00515167 3
264 1 8.36844 -8.12881 21.3916 0.00827043 -0.010525 0.0297912 3
282 1 9.78738 -8.04281 20.8172 0.012284 -0.00862425 0.0391516 3
292 1 10.4692 -9.16531 20.2517 0.00579387 -0.00805138 0.0247288 3
293 1 10.601 -6.78552 20.7602 0.0118852 -0.0111233 0.0223266 3
94 1 -10.8752 -4.32043 20.4861 0.00712855 -0.00479749 -0.00408539 3
95 1 -10.8261 -1.87966 20.4294 0.00199407 -0.00166435 0.00129955 3
106 1 -8.82222 -5.46358 21.6364 -0.00727776 -0.00782531 0.0135503 3
107 1 -9.54281 -4.20542 21.2995 0.00832559 0.00663623 0.00429987 3
108 1 -8.86192 -2.98247 21.7812 0.00469575 -0.0062642 0.00254177 3
109 1 -9.51181 -1.78733 21.2748 0.00261109 -0.000106808 -0.00880512 3
110 1 -8.84214 -0.60493 21.7686 0.017906 -0.00790128 -0.00347525 3
123 1 -7.36209 -5.56331 22.0567 -0.00962926 -0.00403295 0.0192105 3
266 1 8.6157 -5.59395 21.94 0.00933541 0.00554437 0.0250499 3
283 1 10.0038 -5.63613 21.3882 0.0119525 -0.00868919 0.00944124 3
284 1 10.1901 -3.15136 21.4484 -0.0117498 -0.00191781 0.000222214 3
285 1 10.0417 -0.646129 21.4347 -0.00748302 -0.000307606 -0.0154641 3
294 1 10.7851 -4.37124 20.9942 -0.00272845 0.00297043 0.000427556 3
295 1 10.7222 -1.89962 20.9485 -0.00861332 0.00746233 -0.00806848 3
96 1 -10.8416 0.582188 20.44 -0.00302549 -0.00146509 0.00507816 3
97 1 -10.8073 3.04722 20.3659 0.00616752 -0.00344868 -0.00863668 3
98 1 -10.8414 5.5064 20.4486 -0.00720321 -0.000348169 -0.0014632 3
111 1 -9.51864 0.603634 21.3355 0.00779636 0.000730154 0.00293394 3
112 1 -8.85795 1.7986 21.782 0.0207314 -0.000311104 0.00122696 3
113 1 -9.49051 2.9774 21.2684 0.0065285 -0.00706013 -0.0012489 3
114 1 -8.81807 4.24162 21.7542 -0.00493553 0.00327708 0.00299684 3
115 1 -9.45492 5.46737 21.3168 -0.00433105 0.000907348 0.00984566 3
275 1 7.86064 5.55227 22.085 0.0100409 0.00524142 0.0258715 3
274 1 8.67272 4.27115 21.9996 -0.0013 -0.00291846 0.0169472 3
286 1 10.0866 1.80005 21.3927 -0.0164464 -0.00935964 -0.0046541 3
287 1 10.142 4.28925 21.4487 0.000368808 -0.00280072 0.00564123 3
296 1 10.6995 0.567796 20.9404 0.000281758 0.00250305 -0.0187327 3
297 1 10.7634 3.06092 20.9022 -0.0116539 -0.00308905 -0.00668243 3
298 1 10.7426 5.49768 20.9182 0.00524064 -0.00258226 0.0127914 3
99 1 -10.7919 7.95121 20.3473 -0.00476053 0.000580752 0.0246379 3
116 1 -8.6644 6.6989 21.4615 -0.00687189 0.0100362 0.019229 3
117 1 -9.38863 7.94337 20.9377 -0.0114347 0.012719 0.0286434 3
118 1 -8.67935 9.18582 20.707 0.0108198 0.0190469 0.0256819 3
129 1 -7.28091 9.30529 20.862 -0.00265718 0.00240801 0.000878586 3
128 1 -7.2133 6.85395 21.8563 -0.0185456 0.00801886 0.0176083 3
139 1 -6.51833 8.20183 21.5696 0.00146248 0.00191987 0.00368076 3
157 1 -5.10777 8.15048 21.5064 -0.00346317 -0.00955168 0.000596749 3
158 1 -4.48576 9.17359 20.6693 -0.0040041 0.0025851 -0.00377361 3
169 1 -3.08482 9.20925 20.7238 0.00436979 -0.0086465 -0.0118479 3
179 1 -2.34658 8.12197 21.4384 0.0089695 -0.00685226 -0.0194377 3
197 1 -0.920899 8.16313 21.4591 0.0109805 -0.0116602 -0.0173749 3
198 1 -0.169942 9.21898 20.7455 -0.00823409 0.00478798 -0.00288146 3
209 1 1.21656 9.19168 20.7157 -0.00173128 -0.000752231 0.0018553 3
219 1 1.95001 8.15891 21.5259 -0.00692171 -0.00149997 -0.010624 3
237 1 3.40434 8.19665 21.5602 0.000266176 -0.00209438 -0.0120108 3
238 1 4.0826 9.23791 20.7529 0.00596829 -0.00741742 -0.0058923 3
249 1 5.51737 9.277 20.8152 0.00746686 -0.0133334 -0.00620753 3
259 1 6.30422 8.25744 21.6823 0.0081726 -0.0116574 -0.00327844 3
277 1 7.75314 8.10722 21.5493 0.012488 0.0100337 0.013259 3
276 1 8.54143 6.76905 21.7282 0.0143272 -0.00646622 0.0293432 3
278 1 8.33473 9.13774 20.7213 0.00567787 0.0146242 0.0146925 3
288 1 9.89957 6.72273 21.2203 0.0153484 0.00461942 0.0288452 3
289 1 9.72938 9.12364 20.4074 0.00656676 0.00799114 0.0304589 3
299 1 10.534 7.8903 20.5193 0.0106072 0.0144 0.0277769 3
145 1 -5.13362 -6.98827 22.1409 -0.0012824 -0.00267495 0.00371968 3
173 1 -2.34974 -7.02677 22.2052 0.00518304 0.0125791 -0.0112567 3
185 1 -0.941615 -7.09868 22.3515 -0.00406582 0.023494 -0.0116301 3
253 1 6.37424 -7.05977 22.1031 0.0147001 0.000692729 0.0104317 3
225 1 3.46928 -7.136 22.2523 -0.00255828 0.00739818 -0.00551792 3
213 1 1.97633 -7.12722 22.3695 -0.00153558 0.00616847 -0.0148782 3
124 1 -7.44972 -2.9836 22.5192 -0.000672433 -0.00311029 -0.00121954 3
125 1 -7.43856 -0.600066 22.6662 0.0118548 0.000715072 -0.00746749 3
134 1 -6.65908 -4.3197 22.5058 -0.00124841 -0.00257619 0.0198382 3
135 1 -6.71694 -1.82762 22.9564 -0.000689785 0.0029715 0.00393764 3
146 1 -4.50127 -5.69027 22.7138 -0.00515762 -0.00403565 -0.00629938 3
147 1 -5.19755 -4.37199 22.8547 -0.00784111 -0.00832343 0.0088603 3
163 1 -3.05808 -5.81849 22.9219 0.00891677 0.00593534 -0.00212628 3
148 1 -4.42087 -3.14908 23.2762 0.00533481 -0.0071275 -0.00730658 3
149 1 -5.14893 -1.85941 23.4375 0.00115485 -0.00541743 0.00128276 3
186 1 -0.247893 -6.00589 23.0534 0.0134064 0.00992368 -0.0162079 3
174 1 -2.29178 -4.70985 23.5158 0.000749274 -0.00508845 -0.00114889 3
150 1 -4.35482 -0.675591 23.6714 -0.00430764 -0.00760736 -0.002815 3
164 1 -2.97304 -3.27803 23.6591 0.00600055 -0.0014586 -0.00389515 3
175 1 -2.16668 -2.13022 24.1369 0.00458013 -0.00507969 -0.000366865 3
187 1 -0.839059 -4.71279 23.615 -0.00284445 -0.00375877 0.00984473 3
188 1 -0.0143356 -3.50032 24.0445 0.00664419 0.00645777 0.00543715 3
165 1 -2.83034 -0.709671 24.0705 0.0069431 -0.00121232 -0.0105093 3
189 1 -0.686442 -2.23484 24.34 0.000354047 -0.00553698 -0.0107272 3
190 1 -0.0321529 -0.839286 24.5664 -0.00502602 0.00285269 -0.0095239 3
243 1 5.7325 -5.78531 22.4793 0.00113198 -0.00984066 0.00893244 3
254 1 6.46591 -4.42483 22.4993 -0.00164622 -0.0041957 0.0249626 3
226 1 4.22885 -5.94066 22.7224 0.00751701 -0.00774196 0.00351054 3
255 1 6.45463 -1.95198 22.832 0.00174548 -0.00109087 0.0166264 3
227 1 3.51732 -4.7066 23.1138 0.0152192 -0.00166194 0.000886808 3
244 1 5.61388 -3.24688 22.7808 0.0055853 -0.0101869 0.0143027 3
203 1 1.26987 -6.04329 23.1299 0.0057428 0.0054367 -0.00570317 3
228 1 4.17886 -3.34726 23.1658 0.0104906 0.00353769 0.020951 3
245 1 5.79472 -0.700706 23.2276 0.0162507 0.00106595 0.00880356 3
214 1 2.02379 -4.77596 23.4595 0.00805055 -0.00460151 0.00247236 3
229 1 3.63829 -2.01849 23.6543 0.0143978 -0.00451592 0.000676478 3
230 1 4.34979 -0.66707 23.6171 0.0168911 -0.00317356 0.0100573 3
204 1 1.47213 -3.45293 23.9058 0.0049552 -0.0037004 -0.00740692 3
215 1 2.23086 -2.10484 24.0617 0.0102836 0.00151071 -0.00265873 3
205 1 1.52619 -0.744164 24.3399 0.013565 -0.00606748 -0.00511516 3
267 1 7.97994 -4.34033 22.2495 -0.00855687 -0.00260722 0.0238806 3
268 1 8.77594 -3.03669 22.1103 -0.00793015 0.00172011 0.0171094 3
269 1 8.04086 -1.85935 22.5164 -0.00495755 -0.000639771 0.0111043 3
270 1 8.80014 -0.621847 22.323 0.00346617 0.00536581 0.0018384 3
127 1 -7.34661 4.23143 22.2664 -0.00385143 0.00616636 0.0133783 3
126 1 -7.42111 1.75205 22.5925 0.017928 -0.0053123 0.000246674 3
138 1 -6.61752 5.55843 22.2832 -0.0198531 0.00327822 0.0270853 3
155 1 -5.19552 5.66113 22.6266 -0.00927476 0.0138277 0.0125171 3
137 1 -6.65703 2.9912 22.7819 0.00195132 0.00412472 0.0082162 3
136 1 -6.67352 0.60552 23.0883 0.0123706 0.00203881 0.00616835 3
153 1 -5.14825 3.05061 23.1395 0.00845229 0.00263202 -1.6266e-05 3
154 1 -4.48309 4.39165 23.0285 -0.00278249 -0.00151113 -0.00356466 3
178 1 -2.37248 5.8446 22.8567 0.0147399 0.00137699 -0.0114066 3
167 1 -3.0376 4.52348 23.2644 0.00465388 0.000956744 -0.0041289 3
195 1 -0.930736 5.85671 22.9539 0.00325428 -0.0145204 -0.0016398 3
151 1 -5.09083 0.589676 23.5377 -0.00034499 -0.000272077 0.00890333 3
152 1 -4.39525 1.83268 23.4847 -0.000874998 0.00416131 0.00870335 3
194 1 -0.120195 4.73828 23.6757 0.0178755 0.00718415 0.00878242 3
166 1 -2.95392 2.01352 23.9605 0.00768743 0.00534343 -0.00878387 3
177 1 -2.26728 3.35921 23.8795 -0.00379814 0.00886393 -0.00518292 3
193 1 -0.81698 3.46067 24.1052 0.00553632 -0.00386303 -0.00142857 3
176 1 -2.20051 0.689759 24.3425 0.00268696 -0.00352719 -0.0094151 3
191 1 -0.652028 0.669013 24.5985 0.00329174 -0.000685488 -0.00268611 3
192 1 -0.0366642 2.11589 24.2484 0.00579976 0.00226997 -0.0102506 3
258 1 6.4 5.71939 22.3768 0.00809942 0.00566523 0.0247135 3
257 1 6.50353 3.22901 22.7012 -0.00825957 -0.00519617 0.021528 3
235 1 3.47813 5.96464 22.7978 0.00785345 0.00789904 -0.00130353 3
247 1 5.71136 4.4835 22.7237 0.00842747 -0.00778384 0.0203239 3
256 1 6.55388 0.612997 23.0261 0.0115942 -0.00258058 0.00682257 3
218 1 2.00223 5.97497 22.9699 -0.00811092 0.00378119 -0.0250579 3
234 1 4.29559 4.62037 22.9657 0.00892561 0.0146367 0.0101872 3
246 1 5.83849 1.98303 23.0413 0.0107133 0.00162731 0.0111807 3
233 1 3.60902 3.38338 23.2437 0.00718593 -0.00114895 0.00644174 3
207 1 1.37538 4.67914 23.5553 0.00893664 -0.00754451 0.00703999 3
232 1 4.29843 2.02504 23.3133 0.0209792 -0.001067 0.0102226 3
217 1 2.11208 3.39947 23.7867 0.00800749 0.0017128 0.0123718 3
231 1 3.6741 0.736576 23.7278 0.0159256 0.00377838 0.0113071 3
206 1 1.4638 2.13355 24.1446 0.000577283 0.00565465 -0.00457145 3
216 1 2.18796 0.697927 24.2198 0.00158806 -0.00291629 -0.00978556 3
273 1 8.01919 3.08366 22.3829 -0.0105712 -0.00155732 0.0198222 3
272 1 8.82809 1.79688 22.2217 -0.0048552 -0.00628329 0.013022 3
271 1 8.04379 0.615136 22.7175 0.0114337 0.000291284 0.0104704 3
156 1 -4.49224 6.92081 22.2912 0.010367 0.00209637 -0.000912102 3
168 1 -3.05713 6.99559 22.286 0.00860126 -0.0115437 -0.00677478 3
196 1 -0.234697 7.00254 22.2603 0.00449609 -0.021028 -0.0148289 3
248 1 5.70923 6.99734 22.1672 0.00569666 0.000828232 0.007299 3
236 1 4.20374 7.11405 22.2439 0.0127701 0.00536079 -0.00317247 3
208 1 1.21651 7.03753 22.3059 -0.00432442 -0.0046639 -0.0126211 3
