ITEM: TIMESTEP
52500
ITEM: NUMBER OF ATOMS
168
ITEM: BOX BOUNDS pp pp pp
-1.4715758017245314e+01 1.5057610017245315e+01
-1.2710055654020760e+01 1.2664508654020761e+01
-5.0001035148846022e+01 1.0000103514884636e+02
ITEM: ATOMS id type x y z vx vy vz c_coord
92 1 -10.864 -9.2027 20.1165 -0.00489268 0.00665684 0.0187839 3
93 1 -10.9891 -6.84153 20.3785 0.00956893 0.00502903 -0.00400402 3
103 1 -9.46707 -9.20963 20.3898 0.00857716 0.00451406 0.00746105 3
104 1 -8.91661 -8.01554 20.7632 0.00334248 -0.0050721 -0.00297786 3
105 1 -9.68777 -6.81709 20.9454 0.0100028 0.0130796 -0.00162839 3
122 1 -7.45353 -8.0521 20.7957 -0.00446327 1.29101e-05 0.00917966 3
132 1 -6.65972 -9.16936 20.2618 0.0013131 -0.0235321 -0.00256983 3
143 1 -5.2449 -9.25405 20.0963 0.0018399 0.0066299 0.00638969 3
144 1 -4.5534 -8.03168 20.49 0.0111937 -0.00657117 0.0113334 3
162 1 -3.08403 -7.96165 20.3482 0.00905901 -0.00740343 -0.00793787 3
172 1 -2.35213 -9.1467 20.079 0.0133891 -0.00550245 -0.000111146 3
183 1 -0.940801 -9.20606 20.2238 0.0175757 -0.0030079 -0.00292023 3
184 1 -0.290237 -7.92952 20.5446 0.0143692 0.00679879 -0.0184598 3
133 1 -6.74423 -6.95053 21.3368 -0.0123639 -0.00351246 0.0112388 3
145 1 -5.22112 -7.02687 21.2948 0.00239499 -0.00140476 0.0160681 3
173 1 -2.38877 -6.75267 20.8282 0.0123145 0.00542549 -0.0176182 3
185 1 -0.997988 -6.69178 20.6461 -0.0025414 0.000876628 -0.0274418 3
202 1 1.14691 -8.03607 20.4965 -0.0137608 -0.00260208 -0.0181282 3
212 1 1.906 -9.16458 20.2786 0.00444594 0.0119643 -0.0102901 3
223 1 3.35607 -9.23507 20.3596 -0.00362291 -0.00305687 0.00454153 3
224 1 4.06804 -8.02004 20.528 -0.0132105 -0.00785963 -0.00469405 3
242 1 5.51237 -7.89029 20.5347 -0.0179627 -0.0121465 -0.00492153 3
252 1 6.17998 -9.22498 20.4641 -0.000754677 0.0140243 0.0035066 3
253 1 6.28312 -6.82197 21.1759 -0.00406193 -0.0162866 0.00499013 3
225 1 3.35232 -6.76977 20.8738 -0.00773713 -0.00664476 0.000630314 3
213 1 1.95421 -6.79231 20.7404 -0.00165458 -0.00558015 -0.00583403 3
263 1 7.62586 -9.23473 20.5058 -0.00154693 -0.00631439 -0.0120996 3
265 1 7.75433 -6.84327 21.3594 -0.0172776 -0.0206446 0.00356919 3
264 1 8.41633 -8.02637 20.9638 -0.0125778 0.00841324 -0.0107519 3
282 1 9.8861 -8.02493 20.7365 -0.00923504 -0.00882618 0.000533893 3
292 1 10.5627 -9.27161 20.3547 -0.00419999 0.00681888 -0.00738587 3
293 1 10.5502 -6.75547 20.4722 -0.00235579 0.00302737 0.00661782 3
94 1 -10.8806 -4.29168 20.4699 -0.000829894 -0.0170126 0.0144614 3
95 1 -10.8541 -1.85708 20.0965 0.00800686 -0.00284153 0.00455217 3
106 1 -8.93742 -5.66167 21.3266 0.0105388 0.00178214 0.000792429 3
107 1 -9.60259 -4.3859 21.2038 -0.00720282 -0.00171989 0.0100593 3
108 1 -8.93929 -3.06214 21.3865 0.00187209 0.0105548 0.00999945 3
109 1 -9.42079 -1.88523 20.7562 0.0108193 -0.00780321 -9.99064e-07 3
110 1 -8.77245 -0.693899 21.1586 0.00789033 0.00708247 0.0163356 3
123 1 -7.44231 -5.68014 21.721 -0.00936408 -0.0121389 0.00933545 3
124 1 -7.56977 -3.17918 21.9195 0.0133533 0.0114985 0.0157462 3
125 1 -7.37209 -0.657364 21.8426 0.0147345 -0.00034793 0.0224955 3
186 1 -0.160781 -5.50935 20.847 -0.00783309 -0.00695042 0.00272945 3
134 1 -6.69225 -4.42005 21.963 0.010861 0.00665933 0.00540238 3
135 1 -6.70104 -1.94137 21.9837 0.0112332 -0.0158685 0.0298497 3
146 1 -4.55053 -5.79703 21.6407 0.00418385 -0.00147355 0.0102426 3
163 1 -3.13044 -5.69244 21.387 -0.00434404 -0.00543691 0.0227157 3
174 1 -2.30146 -4.45068 21.6249 0.00200017 0.00418187 0.018324 3
164 1 -2.9871 -3.32544 22.0795 -0.00269675 0.00159202 0.0170223 3
187 1 -0.991791 -4.37456 21.0615 0.00813879 -0.0114041 0.0136201 3
150 1 -4.47963 -0.718793 21.9428 0.0158713 0.0109986 0.0351861 3
175 1 -2.40576 -2.01973 21.8784 0.0135795 0.00470632 0.0157416 3
165 1 -3.05814 -0.659661 21.7677 0.00844791 -0.00562841 0.0255612 3
189 1 -1.01324 -1.93944 21.4403 0.0152439 0.00672773 0.00279993 3
188 1 -0.35498 -3.07426 21.0235 -0.00429779 0.0019169 0.0234918 3
190 1 -0.302919 -0.677004 21.264 0.0169413 -0.00816417 0.013312 3
243 1 5.54636 -5.5692 21.4054 -0.000848518 -0.00937454 -0.0103257 3
203 1 1.27188 -5.59111 20.8113 0.000928238 0.0168911 0.00115348 3
254 1 6.29808 -4.34617 21.7554 0.00988508 -0.0137441 0.00786397 3
226 1 4.10087 -5.61007 21.3134 -0.0112764 -0.00135063 -0.0169948 3
227 1 3.34411 -4.39356 21.4017 -0.00151274 0.00172217 0.000897711 3
244 1 5.47627 -3.12295 21.7795 -0.000506873 -0.0022719 0.00412816 3
214 1 1.93472 -4.25452 20.9978 0.00148463 -0.00757743 -0.00115078 3
255 1 6.23818 -1.9273 21.4325 -0.0038313 -0.00299142 0.0138901 3
228 1 4.03226 -3.11436 21.6357 0.00830553 -0.00853602 0.0123766 3
245 1 5.55576 -0.648495 21.5057 -0.00158886 0.00963986 0.0151561 3
229 1 3.36742 -1.90293 21.1999 0.00872927 -0.0049231 -0.00672921 3
230 1 4.0939 -0.658477 21.4519 0.00357893 -0.0124557 0.0187498 3
204 1 1.12616 -3.06679 20.801 0.00362153 0.0097903 0.0286774 3
215 1 1.92823 -1.81971 20.8488 0.00657776 0.00316144 0.0121527 3
205 1 1.12884 -0.661115 21.0572 -0.0115232 -0.00362122 0.0213299 3
269 1 7.69389 -1.9026 21.2698 0.00793236 -0.00112687 -0.00899912 3
267 1 7.81921 -4.39872 21.6249 0.0103123 -0.00669313 0.013197 3
283 1 9.81125 -5.54488 20.695 -0.0170428 0.00644177 0.0127849 3
284 1 9.83292 -3.04733 20.7765 0.00338783 0.00942289 -0.00465109 3
285 1 9.80116 -0.620133 20.6737 -0.0015389 -0.00686743 0.00165764 3
294 1 10.5593 -4.29727 20.5909 -0.0145638 -0.0101749 0.00987692 3
295 1 10.5735 -1.83142 20.483 -0.0104676 -0.009918 -0.00261736 3
268 1 8.47874 -3.13862 21.2254 0.00797587 -0.00361732 0.00696362 3
270 1 8.42008 -0.639648 21.0524 -0.00783771 0.00894521 0.0134745 3
266 1 8.46331 -5.62154 21.4097 0.00233409 -0.00564418 0.00877506 3
96 1 -10.8555 0.622971 20.2476 0.0144277 0.00212773 0.0055376 3
97 1 -10.9365 3.05885 20.4346 0.00114633 -0.00376557 0.00394168 3
98 1 -10.9372 5.53016 20.2996 0.0147227 -0.000244693 0.00377104 3
111 1 -9.51756 0.573784 20.911 0.0111006 0.0120974 0.0119706 3
112 1 -8.84114 1.87755 21.2284 0.00619093 -0.00297736 0.00649767 3
113 1 -9.66068 3.07641 21.0632 -0.00110348 -0.00290736 0.0113819 3
114 1 -9.06981 4.35858 21.4964 -9.91774e-05 -0.00273517 0.00948565 3
115 1 -9.63269 5.58725 20.9785 -0.00457138 -0.00635672 0.0164948 3
126 1 -7.51195 1.93004 21.793 -0.000508609 0.00877074 0.00319127 3
127 1 -7.53888 4.38728 21.8004 -0.0157827 0.0182094 -0.0120143 3
138 1 -6.71022 5.64997 21.6907 -0.0113415 -0.00470131 -0.0142421 3
136 1 -6.73811 0.644114 21.9667 0.00291236 0.0124183 0.0328776 3
178 1 -2.32131 5.51213 21.223 0.00542054 0.00578275 -0.010845 3
195 1 -0.902341 5.56485 20.7986 -0.00809755 -0.00820294 -0.00259754 3
155 1 -5.24233 5.74023 21.6749 -0.00130837 0.00261483 0.00252412 3
137 1 -6.75034 3.15239 21.842 -0.00304816 0.00234078 0.0112284 3
154 1 -4.54716 4.41352 21.8783 0.000369441 0.00197123 0.0169112 3
167 1 -3.05095 4.39373 21.6898 0.00127926 0.0131582 0.017512 3
151 1 -5.21872 0.610811 21.9701 -0.000930882 0.00616811 0.0234768 3
194 1 -0.260891 4.29628 20.8932 0.00552694 0.00422468 0.0128495 3
177 1 -2.33201 3.12987 21.8914 0.0175059 0.00626979 0.0189096 3
166 1 -3.08283 1.80017 21.9253 0.00336026 -0.0079658 0.0151815 3
193 1 -1.02902 3.17657 21.1975 -0.000387035 0.00427496 0.0255722 3
176 1 -2.27682 0.608825 21.7254 0.00759948 -0.0224685 0.0202539 3
191 1 -0.93521 0.697205 21.32 0.00726781 -0.00732334 0.021868 3
192 1 -0.227841 1.90201 21.2176 -0.00152739 -0.00462707 0.0223525 3
258 1 6.34467 5.67228 21.3455 -0.00806863 0.0104366 -0.000689841 3
235 1 3.41575 5.50224 21.0866 -0.00966508 0.00750467 -0.0186477 3
218 1 1.93872 5.51093 20.9906 0.000862481 -0.0140478 0.00714859 3
257 1 6.42708 3.06774 21.5098 -0.00569632 -0.00699068 0.00324478 3
247 1 5.71759 4.34488 21.5058 0.00333174 0.014346 0.0119849 3
234 1 4.25457 4.37201 21.5287 0.00714165 0.0133501 0.00354826 3
207 1 1.21125 4.24603 20.8497 0.00259572 -0.0019539 0.0144586 3
246 1 5.53552 1.85272 21.5987 0.00824989 0.00827302 0.0123131 3
233 1 3.42868 3.13129 21.4632 0.00440657 0.00784057 -0.0043228 3
232 1 4.04384 1.83393 21.4732 0.00710854 -0.00164055 0.00559118 3
256 1 6.24894 0.634838 21.5033 0.0131936 -0.0110879 0.00452556 3
217 1 2.04042 3.0978 20.9933 -0.000103057 0.00192753 0.00798225 3
231 1 3.35048 0.567278 21.3097 0.00590081 -0.0124871 0.0126091 3
206 1 1.22038 1.86837 21.0044 0.00418217 0.00288082 0.0154391 3
216 1 1.90195 0.623831 21.1126 -0.0051838 0.0106262 0.0117875 3
275 1 7.852 5.64656 21.3505 -0.0158524 0.0102632 0.00395706 3
271 1 7.70221 0.637176 21.2134 -0.00554177 -0.00059055 -0.00539267 3
273 1 7.87612 3.08079 21.4637 0.00960929 0.00304601 0.0167554 3
286 1 9.84122 1.82955 20.6715 0.00986523 0.00349653 -0.00164662 3
287 1 9.88207 4.32058 20.7882 0.014463 0.00180396 -0.000757234 3
296 1 10.5053 0.603747 20.3206 -0.00371813 -0.00312271 -0.00914677 3
297 1 10.6464 3.04603 20.6609 -0.00414757 -0.00370386 -0.00120507 3
298 1 10.5929 5.50607 20.5199 -0.00288243 -0.00373887 0.00505817 3
272 1 8.51251 1.83104 21.0704 0.00967668 0.00376249 -0.00534728 3
274 1 8.5426 4.38169 21.3717 -0.00536676 0.0152532 0.00614074 3
99 1 -10.9159 7.90789 20.191 0.00647536 0.00387985 -0.00592724 3
116 1 -8.87794 6.79518 21.0166 -0.00162691 -0.00641443 0.0169328 3
117 1 -9.44351 8.05762 20.673 0.00465842 0.00344189 0.00773919 3
118 1 -8.69982 9.25698 20.5198 0.0162666 -0.000924682 0.00331878 3
128 1 -7.42842 6.8936 21.3325 -0.000771913 0.00404288 0.0120257 3
129 1 -7.27404 9.25439 20.4648 -0.00549543 -0.00586384 -0.00541541 3
139 1 -6.64671 8.01597 20.7755 0.00568775 0.00610264 0.00564935 3
157 1 -5.22528 8.05327 20.5783 0.0119182 0.00170903 0.00704374 3
158 1 -4.47723 9.17739 20.0898 -0.00401455 0.00313873 0.00281754 3
169 1 -3.07311 9.16623 20.2165 0.00246856 -0.00230306 -0.000923213 3
179 1 -2.36347 7.96943 20.5295 -0.00376575 -0.00259599 -0.00132438 3
197 1 -0.965234 8.03683 20.6273 0.0118014 -0.0144899 -0.0203878 3
198 1 -0.230191 9.20568 20.3158 -0.00699123 -0.00529917 -0.0124431 3
156 1 -4.51717 6.8916 21.0367 -0.000723297 -0.013332 0.00949546 3
168 1 -3.06301 6.72309 20.8271 0.0113326 -0.00200303 -0.005837 3
196 1 -0.224064 6.84749 20.8183 0.0199889 0.00757638 -0.00893201 3
209 1 1.14305 9.23144 20.355 0.0137678 -0.00608949 -0.0109598 3
219 1 1.88831 8.00755 20.7111 -0.00708719 -0.00518311 -0.00941597 3
237 1 3.23725 8.04628 20.6179 -0.0131034 0.00341327 0.00632812 3
238 1 3.98255 9.2193 20.4288 -0.012845 0.0106579 0.00460504 3
249 1 5.44577 9.26513 20.4532 0.00130981 0.0118276 -0.00459544 3
259 1 6.22689 8.13859 20.8085 -0.00438704 0.0127921 -0.00270125 3
248 1 5.56426 6.87764 21.0898 -0.00729173 -0.00407418 -0.0111258 3
236 1 4.05103 6.82115 20.8986 0.0133175 0.00346994 -0.0108384 3
208 1 1.28596 6.76814 21.0393 0.00186224 0.00152784 -0.0129337 3
277 1 7.71965 8.10279 20.823 -0.0151737 0.00513517 -0.00155087 3
276 1 8.5465 6.9306 21.0806 -0.0145574 0.0143222 0.0041878 3
278 1 8.43625 9.2363 20.4112 0.00148427 -0.000426148 -0.00711843 3
288 1 9.90965 6.81502 20.6488 -0.0129526 0.00904572 -0.00970393 3
289 1 9.84073 9.23805 20.272 -0.00718221 -0.00508035 -0.00715786 3
299 1 10.5751 7.96958 20.29 -0.00532711 0.00173166 -0.00992217 3
147 1 -5.19448 -4.51847 22.0596 -0.0111949 -0.00382896 -0.00808408 3
148 1 -4.45189 -3.25805 22.1921 -0.00335495 -0.00608042 0.00232117 3
149 1 -5.24876 -1.97452 22.0954 0.0098694 -0.0039389 0.00301218 3
153 1 -5.26713 3.21296 22.1389 -0.00956716 -0.00407829 -0.00115327 3
152 1 -4.52904 1.92801 22.1462 -0.00969979 -0.00397165 0.00778873 3
