ITEM: TIMESTEP
44900
ITEM: NUMBER OF ATOMS
168
ITEM: BOX BOUNDS pp pp pp
-1.4715758017245314e+01 1.5057610017245315e+01
-1.2710055654020760e+01 1.2664508654020761e+01
-5.0001035148846022e+01 1.0000103514884636e+02
ITEM: ATOMS id type x y z vx vy vz c_coord
92 1 -10.7615 -9.25163 19.9851 -0.00217213 -0.00291136 -0.0169376 3
93 1 -10.7628 -6.75155 19.9759 0.00280296 0.00395492 0.00547551 3
103 1 -9.33283 -9.13515 19.9333 0.00591169 -0.00411257 -0.00908545 3
104 1 -8.6557 -7.90839 19.5942 -0.00180738 -0.0132653 0.00418288 3
105 1 -9.44462 -6.64493 19.549 0.0069349 -0.00635819 0.00793744 3
122 1 -7.18541 -7.96655 19.4265 0.0100132 -0.00910652 0.0111844 3
132 1 -6.4978 -9.18107 19.8345 0.0125263 0.00527735 0.0143962 3
143 1 -5.09555 -9.19827 19.7088 -0.00209644 -0.00219575 0.0242294 3
144 1 -4.32818 -7.99151 19.377 -0.00888278 -0.000455405 0.0188493 3
162 1 -2.90724 -7.97681 19.7691 0.00207976 0.000676688 0.0168119 3
172 1 -2.29242 -9.19242 20.195 0.0125606 -0.0018759 -0.00199794 3
183 1 -0.878088 -9.23387 20.3091 -0.0055153 0.00622968 -0.00131857 3
184 1 -0.0963784 -8.05133 20.5039 0.00641022 -0.00390548 0.00632963 3
133 1 -6.53708 -6.71477 19.1571 0.0114038 0.000188871 -0.000441437 3
145 1 -5.11195 -6.76701 19.2677 -0.0111995 -0.00236353 0.0224294 3
173 1 -2.21369 -6.73887 20.1433 -0.00362807 0.00901422 0.0263209 3
185 1 -0.792875 -6.83744 20.3918 0.000880745 0.00242176 0.0271884 3
202 1 1.32411 -7.97816 20.3579 -0.0048336 -0.0118262 0.0157171 3
212 1 1.89652 -9.23443 19.9892 -0.00334448 -0.00639261 0.0161915 3
223 1 3.31466 -9.28071 19.7566 0.00403616 0.00718708 -0.0021193 3
224 1 4.0182 -8.02525 19.7455 -0.0120899 -0.00409946 0.0127334 3
242 1 5.50536 -8.01606 19.6953 -0.0113805 0.00565261 0.0116449 3
252 1 6.24396 -9.18969 19.7063 -0.000283528 -0.00515322 0.00570631 3
253 1 6.25653 -6.72071 19.4448 -0.00592618 0.0190219 0.00869076 3
225 1 3.51311 -6.74119 20.0802 -0.0128859 -0.00281932 0.0193788 3
213 1 2.02974 -6.78308 20.3933 -0.00287658 -0.00497864 0.0253533 3
265 1 7.68933 -6.75122 19.374 -0.0157265 0.00569008 0.00444486 3
263 1 7.66083 -9.16651 19.7245 0.00878139 0.0110425 0.00404104 3
264 1 8.41945 -7.94354 19.6959 -0.00621074 0.00564448 0.00512291 3
282 1 9.82831 -8.03238 19.9168 -0.000505016 0.00606475 -0.0108074 3
292 1 10.5362 -9.22936 20.0736 -0.00753111 -0.000243996 -0.000169071 3
293 1 10.4152 -6.7355 19.9581 -0.00828359 0.0134844 0.00529987 3
94 1 -10.838 -4.31801 19.6467 -0.0135007 -0.00768005 -0.00372228 3
95 1 -10.8261 -1.86439 19.8222 0.0117772 0.0080703 0.0206223 3
106 1 -8.66599 -5.43161 19.2293 0.00841754 0.000361197 0.00356658 3
107 1 -9.40411 -4.26122 19.3678 -0.00866043 0.0123662 -0.00583853 3
108 1 -8.65381 -3.0178 19.1471 0.00260483 -0.00960011 0.00393062 3
109 1 -9.31451 -1.79457 19.5564 0.00561185 0.0130315 0.0250482 3
110 1 -8.54381 -0.561371 19.268 -0.00555241 0.00211445 0.026455 3
124 1 -7.29937 -3.00787 18.5923 0.0118482 -0.00487797 0.0185246 3
125 1 -7.19517 -0.580445 18.5728 -0.000440095 0.00556163 0.0326272 3
123 1 -7.2655 -5.42105 19.194 -0.0116572 -0.00293237 0.000523963 3
186 1 0.00520664 -5.59634 20.2411 -0.00233629 0.00604278 0.00639404 3
134 1 -6.5459 -4.21464 18.9936 -0.00399233 -0.00409494 0.0129027 3
135 1 -6.48038 -1.82918 18.3724 -0.00680137 0.00962851 0.0248006 3
146 1 -4.29593 -5.49548 19.2478 0.00101874 0.0112447 0.0152029 3
147 1 -4.96605 -4.27045 19.1982 -0.00107036 -0.00523911 0.00872604 3
163 1 -2.94307 -5.49744 19.8607 -0.00568192 -0.0138344 0.0193132 3
148 1 -4.16267 -3.06873 19.0253 0.00376831 0.00123574 0.0142921 3
149 1 -4.97676 -1.92774 18.4922 0.00403048 0.000113005 0.0170092 3
174 1 -2.17822 -4.30539 19.9451 0.00998454 -0.00149069 0.0238878 3
164 1 -2.77874 -3.12845 19.4453 -0.00553304 -0.00993187 0.00627217 3
187 1 -0.722601 -4.33245 20.2661 -0.0098558 0.00928491 0.0118062 3
150 1 -4.28155 -0.707351 18.7876 0.00223778 0.00262349 0.00193755 3
175 1 -2.01631 -1.85981 19.4344 0.0114379 -0.00454016 0.00129187 3
165 1 -2.79367 -0.635945 19.288 0.0231642 -0.0015532 0.00582059 3
189 1 -0.598513 -1.98846 19.7808 -0.00538241 -0.0219662 0.00952493 3
188 1 0.124729 -3.22269 20.0961 0.00177043 -0.0113125 0.0289896 3
190 1 -0.0717965 -0.66098 20.0379 -0.00573245 -0.00197459 -0.00812019 3
243 1 5.7033 -5.42468 19.7537 0.000572427 0.00386874 0.0121944 3
203 1 1.43898 -5.4673 20.425 -0.00850631 0.00260523 0.0212118 3
254 1 6.41578 -4.21002 19.7067 -0.00324476 0.00874831 0.0152503 3
226 1 4.30395 -5.569 20.0298 -0.00700351 -0.00851656 0.0179638 3
227 1 3.63347 -4.33832 20.3672 -0.00519124 -0.011905 0.0110704 3
244 1 5.64538 -3.02328 19.8481 0.00980626 -0.00737384 0.00923307 3
214 1 2.21016 -4.28091 20.4886 0.000542473 0.000285925 0.00606152 3
255 1 6.31706 -1.81587 19.6912 -0.00232745 0.00828961 0.0119338 3
228 1 4.20819 -3.05403 20.1392 -0.00912362 -0.00230454 0.0098842 3
245 1 5.50917 -0.619167 19.5344 -0.0188575 0.000151957 0.00356162 3
229 1 3.4818 -1.83678 20.2321 -0.00805415 -0.00959703 0.00885437 3
230 1 4.12123 -0.537633 19.8588 -0.0100683 -0.00728742 0.000878749 3
204 1 1.54056 -3.11213 20.2409 0.0138021 -0.0125371 0.0099918 3
215 1 2.13521 -1.85397 20.2253 -0.0163083 0.00620064 -0.00254604 3
205 1 1.27362 -0.614657 20.2722 -0.00729733 0.00847748 -0.00901805 3
269 1 7.71232 -1.76638 19.3652 -0.00179672 0.0014241 0.0110207 3
267 1 7.73738 -4.223 19.2748 -0.0103304 0.00139672 0.00184194 3
283 1 9.71248 -5.48963 19.7479 0.00552985 0.0161285 0.00394289 3
284 1 9.8162 -3.08525 19.5406 0.00740544 2.00112e-05 0.0225565 3
285 1 9.81184 -0.684069 19.626 -0.00040873 -0.00902359 0.000780015 3
294 1 10.523 -4.32016 19.6563 -0.00526274 -0.0023495 0.000471155 3
295 1 10.5915 -1.92565 19.8325 -0.00690877 -0.00147165 0.00591851 3
268 1 8.40359 -2.99045 19.2885 -0.0107783 0.0082021 0.0286825 3
270 1 8.40619 -0.557732 19.4587 0.0093687 0.0127594 0.019506 3
266 1 8.30347 -5.46425 19.5579 -0.00610379 0.0033287 -0.005669 3
96 1 -10.8145 0.594356 20.0599 -0.00318792 0.007692 0.0036244 3
97 1 -10.8303 3.04 19.7341 0.00832428 -0.00125045 0.00026356 3
98 1 -10.8414 5.47879 19.7499 0.00813715 0.00440109 -0.0149943 3
111 1 -9.4025 0.492769 19.6124 -0.019347 -0.0177972 0.0185927 3
112 1 -8.66013 1.69544 19.3818 -0.00090455 0.00447372 0.0178467 3
113 1 -9.39309 2.91243 19.4489 0.00853983 0.00247194 0.00419074 3
114 1 -8.75912 4.1637 19.1015 -0.0147175 -0.0136263 0.0119847 3
115 1 -9.39519 5.38098 19.5122 0.00307536 -0.00713752 0.00186408 3
126 1 -7.29817 1.72587 18.8581 0.00685276 -0.00292689 0.0149973 3
127 1 -7.28911 4.11747 19.0579 0.00417824 0.00332264 0.00100032 3
138 1 -6.50226 5.40411 18.9352 -0.00204752 0.00257891 -0.00398718 3
136 1 -6.43682 0.632594 18.3916 -0.00203401 0.00686743 0.0326632 3
178 1 -2.04727 5.53474 20.1097 0.00177856 0.0120508 0.0219832 3
195 1 -0.658515 5.53077 20.3608 -0.00951614 0.00879606 0.0180189 3
155 1 -4.95269 5.41586 19.1636 0.00275945 -0.00154155 0.00678049 3
137 1 -6.46288 2.90587 19.0253 -0.00123822 0.00382059 0.0200097 3
153 1 -4.97821 2.90618 19.054 -0.0054013 -0.00492265 0.0102426 3
154 1 -4.21985 4.14074 19.4699 0.00467349 0.00246193 0.0104536 3
167 1 -2.82691 4.28987 19.8771 -0.0197637 0.00481141 0.0280406 3
152 1 -4.14292 1.73626 18.8045 0.0119078 -0.0157774 0.0197013 3
151 1 -4.92864 0.521439 18.5122 0.0199066 0.0154845 -0.000690076 3
194 1 0.115494 4.29696 20.5217 0.00301113 0.00263693 0.0212486 3
177 1 -2.02309 3.07369 19.7129 0.00276353 0.00601848 0.0110075 3
166 1 -2.73497 1.93989 19.2488 0.00565724 0.0062964 0.0180933 3
193 1 -0.662049 3.08672 20.3047 -0.000585082 -0.00494143 0.0126556 3
176 1 -2.08596 0.606492 19.5523 0.0205341 0.0124492 0.00529259 3
191 1 -0.774814 0.643239 20.0781 0.00992755 0.0102894 -0.00248593 3
192 1 -0.0212861 1.86766 20.1943 -0.00480436 0.00927584 -0.00330082 3
258 1 6.4308 5.41105 19.7796 0.00393826 0.000788619 0.00457113 3
235 1 3.61548 5.50569 20.1203 -0.00840558 -0.000227937 0.0174114 3
218 1 2.18863 5.51971 20.2068 -0.00043893 0.0149465 0.00550807 3
257 1 6.25603 2.93281 19.8772 -0.010092 0.0127685 0.0187964 3
247 1 5.67935 4.25165 20.1083 -0.0193271 -0.00336824 0.00800674 3
234 1 4.27658 4.2707 20.2062 -0.0121049 -0.00101507 0.00593297 3
207 1 1.50723 4.25326 20.2932 -0.00471373 -0.00636197 0.0148308 3
246 1 5.50893 1.75682 19.877 -0.00383547 -0.00722267 0.0102846 3
233 1 3.67662 3.02641 20.3509 -0.00349867 0.00898477 0.0214329 3
232 1 4.1251 1.76047 20.0909 -0.00116398 -0.00798302 0.0093587 3
256 1 6.24498 0.566215 19.5289 -0.00902849 0.00370799 0.0177909 3
217 1 2.1874 3.04286 20.429 0.00157465 0.013418 0.00708127 3
231 1 3.36054 0.581423 20.1435 -0.0118395 0.00748471 0.003482 3
206 1 1.35672 1.90245 20.2833 -0.00382396 -0.00532871 -0.00599557 3
216 1 1.98316 0.630303 20.3944 -0.0178942 0.000993428 -0.00735371 3
271 1 7.64197 0.649417 19.5763 0.000902723 -0.0027292 0.0115184 3
273 1 7.64891 3.04017 19.5386 0.0019883 -0.0103199 0.0188218 3
275 1 7.80323 5.3867 19.4794 0.00435631 -0.0146566 0.00176887 3
286 1 9.70903 1.75208 19.7968 -0.0105249 -0.000657562 0.0124219 3
287 1 9.84927 4.25218 19.7432 0.00788228 0.000348811 0.0146538 3
296 1 10.4491 0.596025 19.8702 0.00862514 -0.00192897 0.00183907 3
297 1 10.5226 3.00267 19.9135 -0.00132518 -0.00379381 0.00622413 3
298 1 10.5062 5.53385 19.8539 0.0113828 0.000831878 -0.00230118 3
272 1 8.3557 1.83801 19.5743 -0.0042648 -0.0116047 0.0124313 3
274 1 8.41633 4.17731 19.4092 -0.00837896 -0.00688471 0.00743371 3
99 1 -10.786 7.92081 20.0023 -0.011818 0.00950719 -0.00313591 3
116 1 -8.55422 6.61577 19.6727 -0.00123198 0.000140781 0.00175401 3
117 1 -9.33093 7.85069 19.8453 -0.00945533 0.00643229 0.0022779 3
118 1 -8.73041 9.14587 19.8988 0.0109512 0.000163237 0.000342592 3
129 1 -7.23949 9.08602 19.8628 0.00187248 -0.0105646 -0.00113946 3
128 1 -7.14373 6.55985 19.4354 0.00334947 0.00869557 0.00940699 3
139 1 -6.48718 7.92526 19.5724 -0.00914525 -0.0169087 0.0183337 3
157 1 -5.0392 7.89814 19.4715 -0.0121374 -0.00250665 0.0327772 3
158 1 -4.40516 9.15534 19.7771 0.0101642 -0.0149807 0.0081026 3
169 1 -3.02913 9.17241 19.8387 0.00950528 0.00460294 0.00540139 3
179 1 -2.27447 8.01254 20.1415 0.00592003 -0.000662178 0.00619039 3
197 1 -0.863862 8.03317 20.3133 0.000550448 0.00893004 0.0130471 3
198 1 -0.115128 9.25996 20.2365 -0.00137633 0.0169616 0.0120176 3
156 1 -4.18196 6.68532 19.3327 0.000451277 0.00313827 0.0299877 3
168 1 -2.84118 6.7512 19.8469 9.05057e-06 -0.00714188 0.0216701 3
196 1 -0.0612254 6.83754 20.4266 -0.0100674 0.00141811 0.0163108 3
209 1 1.33719 9.16768 20.0901 0.0109532 -0.010993 -0.00694048 3
219 1 2.11928 7.93551 20.1859 -0.00137538 -0.00249001 0.0144191 3
237 1 3.63171 7.98269 19.9846 -0.00960245 0.00804985 0.0157215 3
238 1 4.19854 9.21082 19.8665 0.00400768 0.00267087 0.00757261 3
249 1 5.59809 9.16438 19.7843 -0.00656361 -0.0109651 0.00647058 3
259 1 6.36266 7.86417 19.6231 -0.00307979 -0.0063704 0.0142131 3
248 1 5.75489 6.59467 19.684 -0.00769653 -0.00424002 0.0300035 3
236 1 4.37304 6.69069 19.9908 0.0043706 0.000940166 0.0268653 3
208 1 1.34432 6.76252 20.2411 -0.0110538 0.00185425 0.00443102 3
277 1 7.70437 7.91339 19.7216 -0.00650098 0.000195921 0.000885345 3
276 1 8.34865 6.67921 19.7042 0.00423005 -0.00321764 0.00179369 3
278 1 8.32208 9.19764 19.9155 0.00216668 -0.00506681 0.000773091 3
288 1 9.76495 6.76641 19.8723 0.00363848 -0.0148221 0.00391522 3
289 1 9.77598 9.19343 20.0058 0.00325729 0.0132295 -0.0112639 3
299 1 10.4696 7.94726 20.053 0.00237047 0.00508627 0.000236877 3
