ITEM: TIMESTEP
14700
ITEM: NUMBER OF ATOMS
168
ITEM: BOX BOUNDS pp pp pp
-1.4715758017245314e+01 1.5057610017245315e+01
-1.2710055654020760e+01 1.2664508654020761e+01
-5.0001035148846022e+01 1.0000103514884636e+02
ITEM: ATOMS id type x y z vx vy vz c_coord
92 1 -10.8664 -9.21308 19.8254 -0.000440211 0.00222305 -0.00172878 3
93 1 -10.77 -6.77646 19.9931 0.0081469 -0.00228014 0.0106214 3
103 1 -9.38329 -9.20809 19.8316 0.00450608 -0.00690041 0.012335 3
104 1 -8.63821 -7.97771 20.0945 0.00326524 -0.00537974 0.0330671 3
105 1 -9.28162 -6.70752 20.2118 0.00028498 -0.000116072 0.0328103 3
122 1 -7.22923 -7.93295 20.6577 -0.0118611 -0.00310125 0.034452 3
132 1 -6.54191 -9.16837 20.5359 -0.00345109 -0.0114731 0.0297004 3
133 1 -6.56468 -6.73777 21.3164 0.000160714 2.95361e-05 0.0229183 3
143 1 -5.16636 -9.27799 20.8107 -0.00783193 -0.0112136 0.0122518 3
144 1 -4.52865 -8.17189 21.5217 -0.00890589 -0.00286177 0.00657464 3
145 1 -5.19505 -6.84211 21.7952 -0.00149466 0.00666229 0.0207482 3
162 1 -2.99805 -8.28364 21.735 -0.00556214 0.00337717 -0.00432652 3
172 1 -2.30822 -9.38615 20.9804 -0.00319827 0.00400271 -0.00839371 3
183 1 -0.921792 -9.3965 20.9877 0.00984534 0.00318885 -0.00296649 3
184 1 -0.194133 -8.37582 21.8224 -0.00342095 -0.00115291 -0.0115668 3
202 1 1.21596 -8.2991 21.6798 -0.0015496 -0.0024622 -0.00718471 3
212 1 1.96694 -9.36313 20.9169 0.00533541 0.0139762 -0.00992803 3
223 1 3.36931 -9.39595 20.962 0.00336223 0.000660209 -0.00462922 3
224 1 4.01627 -8.25598 21.6424 0.00296693 0.00180638 0.0113741 3
225 1 3.36507 -7.03906 22.2253 0.00367328 -0.00681885 0.013707 3
242 1 5.44951 -8.10709 21.3774 0.00183573 -0.0148776 0.017224 3
252 1 6.12768 -9.19674 20.6455 0.00550643 -0.0162468 0.018628 3
253 1 6.17357 -6.84191 21.4717 0.00486156 0.00239587 0.0335521 3
265 1 7.57133 -6.77803 20.89 0.00721155 -0.0146508 0.0335338 3
263 1 7.52546 -9.18272 20.2925 0.00502851 -0.0109446 0.0297949 3
264 1 8.24822 -7.97333 20.2525 0.00616003 -0.00447982 0.0360444 3
282 1 9.68833 -7.9332 19.8303 -0.0014475 -0.000875369 0.0188332 3
292 1 10.5073 -9.22212 19.8165 -0.00230801 0.00592796 0.0015517 3
293 1 10.4141 -6.75838 20.0046 -0.0020211 0.00297967 0.0198246 3
94 1 -10.8118 -4.30203 20.3312 0.000817753 0.0107097 0.0139492 3
95 1 -10.8796 -1.86834 20.462 0.00404691 0.00223311 -0.00219353 3
106 1 -8.64118 -5.51525 20.8907 -0.000257186 -0.00248757 0.0285252 3
107 1 -9.44635 -4.32389 21.0359 -0.00599537 0.00182325 0.0243028 3
108 1 -8.8161 -3.08739 21.5777 -0.00290315 0.00721919 0.0135058 3
109 1 -9.64195 -1.91486 21.3646 0.00451254 0.00736759 0.0101557 3
110 1 -8.98655 -0.649078 21.8089 -0.0109712 0.00777993 0.00452763 3
124 1 -7.36721 -3.05534 22.0197 -0.00194942 -4.23831e-05 0.0206397 3
123 1 -7.25652 -5.42838 21.4452 -0.00357031 -8.49894e-05 0.0219455 3
134 1 -6.53058 -4.2847 22.0811 -0.00037337 0.00840646 0.012414 3
243 1 5.41908 -5.64956 21.9668 0.0119246 -0.0079329 0.021122 3
254 1 6.191 -4.37984 22.0358 0.0123378 -0.00219392 0.0105479 3
267 1 7.62057 -4.37026 21.5838 0.0177251 -0.00595855 0.0154725 3
269 1 7.80194 -1.87651 22.0022 0.00900165 -0.00438521 0.0184137 3
266 1 8.34651 -5.59373 21.0437 0.00612092 -0.00899123 0.0364357 3
268 1 8.392 -3.15983 21.6978 0.018605 -0.00688058 0.0189771 3
270 1 8.60513 -0.633337 21.8351 0.00515533 -0.00308178 0.027609 3
283 1 9.75973 -5.51306 20.5462 0.00950613 -0.00290028 0.0371639 3
284 1 9.87653 -3.04186 21.209 0.0198917 -0.00184787 0.0233922 3
285 1 10.0698 -0.582758 21.4371 0.0108725 -0.00115954 0.0206222 3
294 1 10.5044 -4.27857 20.6227 0.013122 -0.00487869 0.0248851 3
295 1 10.6824 -1.83935 20.9931 0.0160646 0.0157332 0.0121679 3
96 1 -10.8548 0.574269 20.3947 0.00524452 -0.00216458 -0.00661431 3
97 1 -10.911 3.01361 20.4806 0.0017035 -0.00371398 0.00993807 3
98 1 -10.8778 5.48535 20.1952 -0.00297 -0.000796412 0.0134415 3
111 1 -9.60845 0.554976 21.3751 0.00658944 0.00596989 0.0032756 3
112 1 -8.92596 1.83733 21.7152 -0.0130173 -3.67284e-05 0.00245 3
113 1 -9.62239 3.05624 21.2739 0.00303147 0.00253566 0.0119914 3
114 1 -8.76568 4.24499 21.2049 -0.00241601 -0.00298776 0.0200233 3
115 1 -9.40073 5.44802 20.6488 -0.000668425 0.00116079 0.0274368 3
126 1 -7.52075 1.84014 22.2717 -0.00846715 -0.00105654 0.0214973 3
127 1 -7.33611 4.23927 21.7536 0.00926358 -0.000638506 0.0263481 3
138 1 -6.55248 5.44244 21.6194 0.0103424 -0.00920334 0.0166254 3
155 1 -5.10093 5.59112 22.118 0.00449439 -0.00651694 0.0149999 3
257 1 6.23368 3.09234 22.2348 0.014385 0.0106433 0.015726 3
258 1 6.17761 5.59904 21.7257 0.00660475 0.000681362 0.0174727 3
273 1 7.72831 3.10416 21.8491 0.0105214 0.000667396 0.0172704 3
275 1 7.61063 5.60777 21.296 -0.000516004 0.00884067 0.0253506 3
271 1 7.86384 0.579473 21.9986 0.00204692 -0.00316312 0.0221117 3
272 1 8.54103 1.82568 21.8058 0.0102738 0.00212809 0.0195363 3
274 1 8.3655 4.36321 21.4338 0.0212843 -0.00169044 0.0281144 3
286 1 10.0023 1.80255 21.4132 0.0140854 -0.00574695 0.0199753 3
287 1 9.85167 4.27632 20.9211 0.0253095 -0.00173682 0.0231498 3
296 1 10.7782 0.622737 21.0034 0.011937 -0.00770287 0.00656379 3
297 1 10.632 3.02606 20.8644 0.0171366 -0.00494599 0.0206571 3
298 1 10.4115 5.4962 20.3268 0.0095684 0.00471516 0.0244976 3
99 1 -10.8055 7.99141 19.8577 0.00216967 -0.00301742 0.00436697 3
116 1 -8.6633 6.67142 20.5195 0.00212073 0.00419101 0.037204 3
117 1 -9.30811 7.90305 19.9328 0.00430882 -0.0100406 0.0268031 3
118 1 -8.60763 9.17842 19.9661 -0.0047267 -0.00244396 0.0177851 3
129 1 -7.19125 9.11174 20.2602 -0.00378355 0.0104759 0.0284065 3
128 1 -7.29594 6.60976 21.0341 -0.00449774 0.00203926 0.0292086 3
139 1 -6.58575 7.92928 20.9063 -0.013036 0.00465552 0.033083 3
156 1 -4.43606 6.87461 21.9379 -0.0115856 0.00602648 0.0133094 3
157 1 -5.16069 8.07147 21.3604 -0.00319492 0.0149396 0.0166786 3
158 1 -4.47476 9.32729 20.9298 -0.00101379 0.00497865 -0.00724415 3
169 1 -3.02868 9.28901 20.9829 -0.00482133 -0.00355038 -0.00591891 3
179 1 -2.28957 8.318 21.8245 0.00282871 -0.000454993 0.00830019 3
197 1 -0.85852 8.32275 21.8401 -0.00409429 -0.00633124 -0.00142495 3
198 1 -0.220426 9.319 20.9222 0.00251217 -0.00578682 -0.0141624 3
209 1 1.17298 9.30783 20.9039 -0.00109644 -0.0166261 -0.000414607 3
219 1 1.85446 8.28666 21.6943 0.0069787 0.00100112 -0.00756117 3
236 1 4.00766 6.87649 22.109 5.63169e-05 0.00918573 0.0137911 3
237 1 3.29883 8.23304 21.6199 0.00566805 0.000705753 0.00574996 3
238 1 4.01944 9.40725 20.9617 0.00533545 0.00448563 0.000343749 3
248 1 5.43751 6.84515 21.7277 0.00321399 0.011414 0.0241331 3
249 1 5.44403 9.35417 20.865 0.00119782 0.0113159 0.0108584 3
259 1 6.09795 8.08658 21.1313 0.00839615 0.0160432 0.0296933 3
277 1 7.48893 8.05506 20.563 -0.00243045 0.0137647 0.0383532 3
276 1 8.24246 6.8003 20.6493 0.00752504 0.00610167 0.0388143 3
278 1 8.33753 9.16382 20.0315 -0.00113059 0.00214994 0.0203046 3
288 1 9.65084 6.79574 20.1129 -0.00364148 0.00380813 0.0310994 3
289 1 9.73315 9.23846 19.8079 -0.0017195 -0.00335139 0.00812891 3
299 1 10.4341 7.99659 19.8063 -0.00465093 0.00509882 0.00932887 3
173 1 -2.36261 -7.15483 22.466 -0.00300951 -0.0091352 0.00688163 3
185 1 -0.907474 -7.17125 22.5378 0.00141841 -0.0167787 -0.00367412 3
213 1 1.9298 -7.10798 22.3483 0.00411701 -0.0169986 0.0126041 3
125 1 -7.56439 -0.628897 22.3783 -0.0035517 0.000226018 0.0248271 3
135 1 -6.77466 -1.85552 22.5794 0.000599351 -0.00248161 0.0181339 3
146 1 -4.47085 -5.71154 22.3682 0.00149547 -0.00952635 0.0171212 3
147 1 -5.1848 -4.41876 22.6551 -0.00349467 0.00988639 0.00781798 3
163 1 -3.01912 -5.81075 22.7296 -0.00456113 -0.0034394 0.0123314 3
148 1 -4.49892 -3.15648 23.2364 -0.000198348 -0.00426999 0.0153618 3
149 1 -5.3513 -1.89407 23.1482 0.00965349 0.00886252 0.00852091 3
186 1 -0.234876 -5.94615 22.9691 -0.00386612 -0.0207966 0.018743 3
174 1 -2.33175 -4.58464 23.2076 0.0100781 -0.00659203 0.00332088 3
150 1 -4.77031 -0.648769 23.5288 0.00693646 0.00631972 0.0124077 3
164 1 -3.10638 -3.18024 23.5991 -0.00177898 0.00596776 0.0178397 3
175 1 -2.47343 -1.9338 24.1384 0.0246925 -0.00190302 0.00579376 3
187 1 -0.94558 -4.65381 23.4685 0.00935187 -0.00867602 0.0029385 3
188 1 -0.283147 -3.31374 23.9061 0.000349705 -0.00888507 0.00574242 3
165 1 -3.26768 -0.657071 24.0901 0.0123018 -0.000967682 0.0184943 3
189 1 -0.929302 -1.94852 24.2211 0.0175628 -0.00674928 0.0120707 3
190 1 -0.184964 -0.620678 24.4626 0.00993638 -0.00547107 0.0132819 3
226 1 3.99518 -5.65131 22.3939 -0.000201063 -0.00272496 0.0158334 3
255 1 6.34984 -1.84251 22.4302 0.00918838 -0.00802469 0.0153635 3
227 1 3.38609 -4.39684 22.8506 0.0113846 0.00334781 0.0133652 3
244 1 5.56342 -3.07594 22.4857 0.017285 0.00420093 0.00324458 3
203 1 1.26409 -5.88983 22.914 -0.000558531 -0.0159918 0.00888841 3
228 1 4.16062 -3.13687 22.9805 -0.00087139 -0.0143903 0.00139079 3
245 1 5.56864 -0.631151 22.6762 0.00521314 0.013403 0.0214673 3
214 1 1.93641 -4.54994 23.2566 0.00417351 -0.0169741 0.0111064 3
229 1 3.39729 -1.89348 23.2952 0.00243617 -0.0098434 0.0104012 3
230 1 4.13539 -0.680289 23.1243 1.15609e-05 -0.00323597 0.0145149 3
204 1 1.15931 -3.33374 23.7472 -0.000334387 -0.0135555 0.0183233 3
215 1 1.97403 -2.02373 23.9017 -0.00524879 -0.000894898 0.0172797 3
205 1 1.3718 -0.701981 24.3451 0.0174417 4.13505e-05 0.0195087 3
137 1 -6.66631 3.05843 22.3729 -0.0100901 -0.00689037 0.0100935 3
136 1 -6.81342 0.591787 22.6026 0.00282175 0.00239752 0.0149894 3
153 1 -5.27206 3.09168 22.9181 -0.00144628 -0.00660445 0.0119925 3
154 1 -4.4887 4.36564 22.8473 0.00182623 -0.0044196 0.0204513 3
178 1 -2.39721 5.80821 22.9739 0.000995075 0.00256695 0.00549424 3
167 1 -3.11325 4.44839 23.3137 0.00321047 0.00323198 0.0118939 3
195 1 -0.913891 5.86075 23.0513 -0.000870434 0.011223 0.00135257 3
151 1 -5.42238 0.607717 23.1597 0.0108074 0.00620478 0.00101978 3
152 1 -4.66865 1.86371 23.4834 0.00454348 -0.00628953 0.00426052 3
194 1 -0.254065 4.52575 23.3437 -0.00614722 0.0144844 -0.00188031 3
166 1 -3.1773 1.83127 23.8582 0.00807817 -0.00452047 0.0140673 3
177 1 -2.37455 3.15933 23.7336 0.00800513 0.00591113 0.0131404 3
193 1 -0.915302 3.1836 23.7698 0.0178498 0.00727893 0.0107134 3
176 1 -2.46037 0.614234 24.2553 0.0116013 -0.000292139 0.0130249 3
191 1 -0.880486 0.679684 24.4898 0.0205878 0.000720675 0.00889071 3
192 1 -0.220623 1.98088 24.3095 0.0155317 0.013853 0.0214032 3
235 1 3.32923 5.68571 22.6189 0.00252142 -0.00201211 0.0225879 3
247 1 5.45934 4.31212 22.1663 0.0326874 0.00474264 0.00724408 3
256 1 6.3166 0.634725 22.4445 0.0106654 0.00555618 0.0293341 3
218 1 1.88771 5.78096 22.8089 0.00472034 0.00916828 0.0256196 3
234 1 4.06935 4.31811 22.6761 0.00719171 0.000544017 0.00805885 3
246 1 5.53241 1.83245 22.6422 0.0165319 0.00218661 0.0101749 3
233 1 3.39365 3.1383 23.1141 -0.000316582 0.00634378 0.0126225 3
207 1 1.15048 4.50913 23.2543 -0.00653639 0.0224533 0.0132953 3
232 1 4.11041 1.84836 23.1523 -0.000794491 0.00888511 0.00671006 3
217 1 1.88731 3.1742 23.5409 -0.00310519 0.00598114 -0.000884052 3
231 1 3.42544 0.581219 23.4968 -0.00150831 -0.00024955 0.00789807 3
206 1 1.28705 1.9896 24.0965 0.008594 0.00539099 0.0116008 3
216 1 2.01842 0.601365 24.002 0.00103945 0.0139786 0.0115411 3
168 1 -3.02217 7.01432 22.337 -0.00694068 0.00550089 0.00444959 3
196 1 -0.216163 7.13301 22.596 -0.000613665 0.0157453 -0.00500216 3
208 1 1.18872 7.16391 22.539 0.00179188 0.00232051 0.00831782 3
