ITEM: TIMESTEP
48800
ITEM: NUMBER OF ATOMS
168
ITEM: BOX BOUNDS pp pp pp
-1.4715758017245314e+01 1.5057610017245315e+01
-1.2710055654020760e+01 1.2664508654020761e+01
-5.0001035148846022e+01 1.0000103514884636e+02
ITEM: ATOMS id type x y z vx vy vz c_coord
92 1 -10.7975 -9.21842 20.161 0.00111512 0.00678023 0.000790197 3
93 1 -10.8199 -6.7406 19.8962 -0.000413235 -0.00484348 -0.00121818 3
103 1 -9.40033 -9.20736 20.186 -0.00596321 -0.00445882 0.00156796 3
104 1 -8.71114 -7.99897 19.8766 -0.00444464 0.00397234 0.0122776 3
105 1 -9.35157 -6.75617 19.7304 0.0152153 0.00395451 0.0203252 3
122 1 -7.26858 -8.02792 20.1934 -0.0113244 -0.00360164 0.0060429 3
132 1 -6.60184 -9.26867 20.2618 -0.00151722 -0.00181314 0.00391999 3
143 1 -5.23247 -9.26439 20.3658 -0.0134333 -0.000213754 -0.00148915 3
144 1 -4.55603 -8.10734 20.6431 0.00712051 -0.00321706 -0.0031 3
162 1 -3.14919 -8.12281 20.8 0.00906325 0.00290668 -0.000591699 3
172 1 -2.3359 -9.29176 20.5561 -0.00210249 -0.00311245 -0.00156157 3
183 1 -0.913095 -9.32206 20.5954 -0.00413614 -0.0068609 0.0107398 3
184 1 -0.379432 -8.00916 20.7486 0.0020093 0.00112084 0.00966012 3
133 1 -6.62436 -6.77657 20.5498 -0.0101283 0.0026115 0.0135388 3
145 1 -5.22684 -6.85475 20.7807 0.0320685 0.010575 -0.00251576 3
173 1 -2.43859 -6.88629 20.9752 0.0200759 0.00706148 0.00529834 3
185 1 -1.02194 -6.71694 21.0414 0.00318371 0.00607809 -0.00130317 3
202 1 1.10097 -8.03117 20.7886 -0.00869828 -0.000665276 0.00447481 3
212 1 1.84648 -9.11773 20.526 -0.0167397 0.00965462 -0.00798578 3
223 1 3.29139 -9.26572 20.5131 -0.000151812 -0.0079949 -0.00449744 3
224 1 3.99891 -8.16418 21.0477 -0.000419036 -6.57294e-05 0.00202173 3
242 1 5.43198 -8.16019 20.8673 -0.000562225 0.0101914 0.00844319 3
252 1 6.20214 -9.25145 20.3191 -0.00223976 -0.00542658 0.0132413 3
253 1 6.16033 -6.90255 20.6949 -0.00482663 -0.000316845 0.0244903 3
225 1 3.23034 -6.8643 21.0898 0.012192 -0.00132875 0.00608835 3
213 1 1.79614 -6.73402 21.1825 0.00396783 -0.0040724 0.00474656 3
265 1 7.67618 -6.86046 20.5155 0.00519598 0.0044973 0.0229422 3
263 1 7.60229 -9.28381 20.0214 -0.0128307 -0.000302181 0.00597023 3
264 1 8.24037 -8.05317 20.0377 -0.00717151 0.000894015 0.00375097 3
282 1 9.66229 -8.05031 19.8482 0.00409629 -0.0017176 0.015369 3
292 1 10.4945 -9.26724 19.9959 0.000580667 0.00427805 -0.00158454 3
293 1 10.4279 -6.82117 19.9511 -0.00227962 0.00271411 0.0279133 3
94 1 -10.8087 -4.3027 20.1431 0.00228681 -0.00891296 0.00337694 3
95 1 -10.8513 -1.89359 19.9372 0.000741842 -0.00474443 0.0185227 3
106 1 -8.6816 -5.53541 20.033 -0.00887171 0.00688476 0.0295155 3
107 1 -9.38551 -4.27962 20.2672 -0.00766485 -0.0057635 0.00216124 3
108 1 -8.67145 -3.09317 20.4049 -0.00255788 -0.0135194 0.0078745 3
109 1 -9.44843 -1.82838 20.197 -0.00959346 -0.00597215 0.0103215 3
110 1 -8.84441 -0.590146 20.3155 -0.0133839 0.0164543 0.0115517 3
123 1 -7.26932 -5.54767 20.2619 -0.00498238 0.00549101 0.0309609 3
124 1 -7.31209 -3.01226 20.487 -0.0263621 0.0105684 0.0295176 3
125 1 -7.46851 -0.665094 20.713 -0.0118491 -0.0031643 -0.00361303 3
186 1 -0.275017 -5.47252 21.0483 0.0035562 0.0120812 0.0022866 3
134 1 -6.63045 -4.26899 20.4675 -0.0225291 0.00196175 0.0362774 3
135 1 -6.62067 -1.78411 20.5577 -0.00386637 0.00575281 0.00790947 3
146 1 -4.44932 -5.62721 20.7029 -0.0104805 -0.00445829 0.015994 3
147 1 -5.16034 -4.45294 20.3213 -0.0199279 0.0129182 0.0244123 3
163 1 -3.04663 -5.57588 20.7916 -0.0128361 -0.00286337 0.0197455 3
148 1 -4.60283 -3.16462 20.2603 -0.0163821 0.0111172 0.0255801 3
149 1 -5.20264 -1.8803 20.5635 -0.0109755 -0.0127498 0.0352886 3
174 1 -2.39019 -4.26081 20.8148 -0.0119313 -0.00456702 0.00499642 3
164 1 -3.1603 -3.18396 20.3001 0.00458504 -8.91541e-05 0.0192598 3
187 1 -0.988784 -4.15244 20.9562 0.00509007 -0.0170142 -0.00556145 3
150 1 -4.48479 -0.602893 20.5715 0.0134821 0.0124968 0.0298693 3
175 1 -2.41969 -1.97838 20.1395 -0.0288271 -0.000676404 0.019245 3
165 1 -3.09476 -0.7105 20.3485 0.00402182 -0.00572658 0.0309562 3
189 1 -1.00016 -1.79815 20.2027 -0.00807359 0.00384587 -0.00361097 3
188 1 -0.322831 -2.91414 20.7184 -0.00500198 0.00178834 -0.00235191 3
190 1 -0.344501 -0.62951 20.0882 0.000282484 0.00106403 0.00601119 3
243 1 5.39774 -5.63261 20.702 0.00926986 0.00913255 0.0130136 3
203 1 1.1849 -5.44224 21.2786 0.00947611 0.00347383 -0.00844531 3
254 1 6.17115 -4.42205 20.6666 -0.00326088 -0.00100169 0.0111162 3
226 1 3.95976 -5.65718 20.8473 -0.00283478 0.00176998 0.0114838 3
227 1 3.3847 -4.3245 20.7592 0.00562735 -0.00299746 0.00220323 3
244 1 5.55738 -3.12631 20.6743 0.00371884 0.0099068 0.0253317 3
214 1 1.9693 -4.24558 21.1294 -0.00200154 -0.00967448 -0.00688646 3
255 1 6.24561 -1.89349 20.7147 0.00582312 -0.00245463 0.00319253 3
228 1 4.13723 -3.09141 20.5136 0.0182364 0.00411634 0.0186286 3
245 1 5.48037 -0.683203 20.8186 0.00559505 0.00101795 0.0163427 3
229 1 3.27257 -1.91733 20.5974 -0.00257687 0.00111918 -0.00209448 3
230 1 3.9795 -0.674278 20.6003 0.004635 0.00727563 0.0151308 3
204 1 1.12941 -3.05167 20.8408 -0.0108139 -0.00653569 0.00952579 3
215 1 1.78192 -1.82824 20.577 0.0070164 -0.00359567 0.00834272 3
205 1 1.00792 -0.600094 20.3551 -0.00732966 -0.0156417 0.0128136 3
269 1 7.6796 -1.95653 20.7305 0.00347885 0.0107746 0.022087 3
267 1 7.60998 -4.40707 20.5853 0.0125973 -0.00212703 0.0165097 3
283 1 9.77082 -5.63841 20.2877 0.00407083 -0.00241602 0.00265671 3
284 1 9.78253 -3.13538 20.3075 -0.0040225 0.00785114 0.00288149 3
285 1 9.84702 -0.620435 20.4656 -0.00197633 0.00320015 0.0171359 3
294 1 10.5089 -4.35068 20.0759 0.000937931 0.00202914 0.0158286 3
295 1 10.491 -1.84256 20.3026 0.0085738 0.0140707 -0.00203323 3
268 1 8.35085 -3.19992 20.4653 0.00272986 0.00171595 0.00426097 3
270 1 8.4197 -0.697581 20.722 0.00480874 -0.00553503 0.017709 3
266 1 8.35946 -5.63834 20.5303 -0.00231353 0.0117566 0.00737672 3
96 1 -10.9246 0.589565 20.0785 -0.0100547 -0.00390523 0.00221124 3
97 1 -10.9005 3.06114 19.9883 0.00462066 -0.0135417 0.00508473 3
98 1 -10.8928 5.48104 19.9011 0.0108444 0.00376216 -0.000837854 3
111 1 -9.47218 0.661503 20.2793 -0.017888 -0.00415785 0.0167205 3
112 1 -8.82712 1.86623 20.3117 -0.00379803 -0.000386886 0.00403732 3
113 1 -9.45638 3.13202 20.0561 -0.0116616 -0.00528563 0.00532486 3
114 1 -8.77697 4.31462 20.2557 -0.0161684 -0.00289891 0.0222088 3
115 1 -9.4781 5.52075 20.0322 -0.00657225 0.00655632 0.0062586 3
126 1 -7.50174 1.8225 20.5596 -0.00725882 0.0011975 0.0342038 3
127 1 -7.36949 4.3425 20.3256 -0.0101297 -0.0224261 0.0223155 3
138 1 -6.7068 5.54845 20.5908 -0.00043598 -0.00468291 0.0217207 3
136 1 -6.74974 0.596505 20.7596 -0.00487101 -0.00211961 0.00553742 3
178 1 -2.46451 5.5207 20.9897 0.00111538 -0.00246273 0.00930449 3
195 1 -1.00809 5.45546 20.9476 0.011824 0.00280133 0.00206577 3
155 1 -5.33236 5.58925 20.816 0.00181891 -0.00682265 0.0114779 3
137 1 -6.784 3.05462 20.5091 -0.0208924 -0.00935373 0.0283881 3
153 1 -5.35946 3.14247 20.5173 -0.00465154 0.0019766 0.0481149 3
154 1 -4.62903 4.32783 20.8148 -0.0135228 0.004842 0.0213511 3
167 1 -3.12351 4.27159 20.8126 -0.00737968 0.00364243 0.00800408 3
152 1 -4.60793 1.87718 20.3432 -0.00690815 0.00605247 0.0157473 3
151 1 -5.33526 0.661778 20.6349 -0.00580185 0.00261944 0.0203287 3
194 1 -0.314462 4.22475 20.9776 -0.010123 0.00825644 0.00200204 3
177 1 -2.37603 3.15293 20.3563 -0.010686 -0.0127642 0.00728294 3
166 1 -3.17343 1.91864 20.0703 -0.0119369 -0.00967899 0.00153478 3
193 1 -0.9967 3.10511 20.6418 -0.017591 0.0152798 -0.00843416 3
176 1 -2.55525 0.6151 20.0195 -0.00651086 -0.00494552 0.0353507 3
191 1 -1.087 0.631502 19.9921 0.0032307 -0.00114268 0.0113029 3
192 1 -0.290269 1.799 20.2793 -0.00735792 0.000751206 0.00510151 3
258 1 6.14304 5.63205 20.9561 0.0114827 0.0040764 0.0112031 3
235 1 3.19157 5.49448 21.1128 0.0103222 -0.00977397 -0.000982676 3
218 1 1.73228 5.49691 21.223 0.00474112 -0.00265764 -0.00604796 3
257 1 6.19222 3.12548 20.8976 0.0158433 -0.0054672 0.0131291 3
247 1 5.47733 4.3742 20.9942 0.0195027 -0.00231269 0.0165364 3
234 1 3.97577 4.29641 20.9287 0.0147212 -0.00373681 0.0181949 3
207 1 1.12809 4.26615 21.1115 -0.00414446 0.0118284 0.00759495 3
246 1 5.52223 1.87769 20.5994 0.000925204 0.0040779 0.0112226 3
233 1 3.27567 3.08398 20.7274 -0.00809429 -0.0100595 -0.000688512 3
232 1 4.04893 1.82261 20.4419 -0.0117307 0.00998616 0.00987484 3
256 1 6.1784 0.605613 20.8385 0.00677077 -0.00859258 0.00869929 3
217 1 1.87738 3.05135 20.6592 -0.0208931 0.00950122 0.000576451 3
231 1 3.21743 0.625075 20.4447 -0.0060464 -0.00553302 0.00811199 3
206 1 1.15134 1.84359 20.3911 0.00305505 0.0101717 0.00478672 3
216 1 1.7528 0.596536 20.4261 -0.0109489 -0.00522834 0.00170462 3
271 1 7.72123 0.54123 20.7848 -0.000642189 0.00867846 0.00955134 3
273 1 7.56572 3.14831 20.6615 0.000332771 -0.0139479 0.0108462 3
275 1 7.58915 5.69099 20.7433 0.00260947 -0.0049267 0.00765355 3
286 1 9.78933 1.87237 20.3716 -0.00755282 -0.00371123 0.0105452 3
287 1 9.74567 4.36487 20.3491 -0.0114855 -0.00906824 -0.00219513 3
296 1 10.5308 0.624105 20.2862 0.00748478 -0.00431694 0.00140644 3
297 1 10.4711 3.10576 20.2511 0.00296991 0.00251119 0.0134148 3
298 1 10.4721 5.58215 20.0417 -0.00361452 -0.00479586 0.0144175 3
272 1 8.30324 1.79935 20.5558 0.00805439 -0.000255645 0.013427 3
274 1 8.37189 4.39894 20.6038 0.00442688 0.00143401 0.00630578 3
99 1 -10.8468 7.94742 19.8776 0.00565414 0.00347648 -0.00220539 3
116 1 -8.7624 6.75241 20.087 -0.00278184 -0.0102325 0.0188601 3
117 1 -9.40058 7.96285 19.8569 -0.0204158 0.00402609 0.0144869 3
118 1 -8.71445 9.17612 19.911 -8.97813e-05 -0.011937 -0.00253526 3
129 1 -7.35021 9.1728 20.0952 0.00247657 -0.013392 -0.00327043 3
128 1 -7.38309 6.76145 20.3075 0.00108145 -0.00752264 0.0226853 3
139 1 -6.58129 7.91841 20.3627 -0.00236213 -0.0118543 0.00870875 3
157 1 -5.16122 7.98972 20.7632 0.00191395 -0.00609665 0.00963739 3
158 1 -4.44717 9.25737 20.5497 0.0142163 -0.000715339 -0.0106655 3
169 1 -3.03634 9.24643 20.6538 0.00507906 -0.00986745 0.00512502 3
179 1 -2.26525 8.06099 20.8943 -0.00904665 -0.00704626 0.00577843 3
197 1 -0.915068 7.96225 20.818 0.0117891 0.00794442 0.0139505 3
198 1 -0.220469 9.16294 20.2964 -0.00446631 0.00608368 0.00569005 3
156 1 -4.46201 6.7811 21.0576 0.012681 -0.00973877 0.00945562 3
168 1 -3.07289 6.82915 21.1064 0.00133511 0.00649469 -0.00186318 3
196 1 -0.287089 6.64661 20.9304 0.0177489 0.00942135 0.00466064 3
209 1 1.15797 9.22921 20.2895 -0.00154645 0.0194828 0.00236175 3
219 1 1.73356 8.0392 20.9694 -0.00179084 -0.00802498 0.00302085 3
237 1 3.17716 8.02072 20.9254 -0.00942068 0.00498984 0.011779 3
238 1 3.96937 9.23653 20.5585 0.0159478 0.00516176 -0.00270799 3
249 1 5.43526 9.29758 20.4186 -0.00204619 -0.0131874 -0.00933395 3
259 1 6.1103 8.0184 20.5543 0.00950904 0.00732994 -0.00179235 3
248 1 5.37007 6.84588 20.9106 -0.00343647 -0.00402158 0.0166203 3
236 1 3.88423 6.69642 21.0305 0.00542649 0.0026906 0.0133361 3
208 1 1.07931 6.75096 21.2605 0.00233638 0.00906521 -0.00191859 3
277 1 7.60329 8.03048 20.4138 0.0083858 -0.0125328 0.0149874 3
276 1 8.36828 6.79538 20.4476 -0.003642 0.000759986 0.0191136 3
278 1 8.35408 9.18115 20.1575 -0.00042924 -0.00429835 0.00926978 3
288 1 9.79064 6.81035 20.232 -0.00298168 -2.4205e-05 0.0224441 3
289 1 9.70574 9.19835 19.972 0.00899192 -0.00463333 0.0101999 3
299 1 10.4976 8.04998 19.9917 -0.00478776 -0.0105359 0.0111951 3
