ITEM: TIMESTEP
33000
ITEM: NUMBER OF ATOMS
168
ITEM: BOX BOUNDS pp pp pp
-1.4715758017245314e+01 1.5057610017245315e+01
-1.2710055654020760e+01 1.2664508654020761e+01
-5.0001035148846022e+01 1.0000103514884636e+02
ITEM: ATOMS id type x y z vx vy vz c_coord
92 1 -10.8234 -9.21149 20.2444 -5.78455e-05 0.000214243 -0.010534 3
93 1 -10.8004 -6.80672 19.8631 0.00458733 -0.00574874 -0.00699594 3
103 1 -9.38994 -9.21133 20.1456 0.0108579 0.010786 -0.00955172 3
104 1 -8.65512 -8.00028 20.2319 -0.000241208 0.00516904 -0.0178834 3
105 1 -9.33675 -6.7433 19.9825 -0.00762358 0.00969502 -0.00755666 3
122 1 -7.21158 -7.85364 20.2628 -0.00448089 -0.00901868 -0.0123576 3
132 1 -6.59902 -9.14998 20.0047 0.00169444 0.0112544 -0.00738918 3
143 1 -5.17326 -9.12944 19.7577 0.00312063 0.0111836 -0.0112978 3
144 1 -4.28849 -7.91396 19.7955 -0.00589383 0.00023314 -0.00964172 3
162 1 -2.84862 -8.01663 19.5201 -0.0030075 0.00187679 0.00410733 3
172 1 -2.20315 -9.20056 19.6876 0.00558702 -0.00121815 0.0102721 3
183 1 -0.790494 -9.27582 19.5927 -0.00205763 0.00136692 -0.00309446 3
184 1 -0.0411987 -8.07661 19.3363 -0.00587766 0.0159155 0.00438458 3
133 1 -6.2752 -6.68031 20.294 -0.0222636 -0.0046521 -0.0193575 3
145 1 -4.87225 -6.57377 19.7618 -0.0179742 0.00899196 -0.0249127 3
173 1 -2.02762 -6.7349 19.1864 0.00759953 -0.00326134 -0.00837423 3
185 1 -0.584478 -6.75062 19.1933 0.0032061 -0.00913826 -0.00631342 3
202 1 1.37986 -8.08269 19.3699 -0.0033227 -0.00286779 -0.0162213 3
212 1 2.02156 -9.26614 19.7412 -0.00390218 0.00261952 -0.00391575 3
223 1 3.44797 -9.29609 19.8184 -0.0106302 0.000392196 0.00447545 3
224 1 4.20317 -8.08463 19.6592 -0.0155985 0.000120104 0.000697337 3
242 1 5.57261 -8.0379 19.7587 0.00226987 -0.00655683 -0.0014269 3
252 1 6.27847 -9.27177 19.8141 -0.0142609 0.00620189 -0.00757245 3
253 1 6.33261 -6.84064 19.3894 -0.00984761 -0.01556 -0.0144271 3
225 1 3.60451 -6.87612 19.0497 -0.0167455 0.0049492 -0.0148539 3
213 1 2.17584 -6.85213 18.9653 -0.00561031 -0.00351272 -0.0168685 3
263 1 7.6925 -9.2346 19.7364 0.00764341 -0.0032125 -0.00641631 3
265 1 7.78639 -6.7779 19.6413 -0.000681415 0.0153753 -0.0130069 3
264 1 8.44843 -8.06584 19.7037 0.00170536 0.00345559 -0.00410868 3
282 1 9.83237 -8.02628 19.9534 -0.00819811 0.00834403 -0.0140763 3
292 1 10.4652 -9.23024 20.1693 -0.00759301 0.012189 -0.00370672 3
293 1 10.5503 -6.75319 19.8998 0.00205391 -0.00280589 0.0141274 3
94 1 -10.813 -4.35285 20.2648 -0.00446091 -0.000792863 0.0155387 3
95 1 -10.7673 -1.84906 19.9568 0.00336976 -0.00680736 0.00296078 3
106 1 -8.54341 -5.51756 20.1146 -0.00307299 0.00831887 0.0135439 3
107 1 -9.25912 -4.30382 20.2963 -0.00367124 0.00342334 0.0243743 3
108 1 -8.46575 -3.07476 20.2089 -0.00156771 0.00919914 0.0219884 3
109 1 -9.25245 -1.82031 20.0125 0.00351635 -0.0107677 0.000606941 3
110 1 -8.54388 -0.616072 19.6787 -0.00984651 0.00461503 -0.0118334 3
124 1 -7.05792 -3.1312 19.7101 -0.00304204 0.00174939 0.0293799 3
123 1 -7.02755 -5.51298 20.1899 0.00277874 0.0144963 0.0016736 3
125 1 -7.05502 -0.636631 19.4327 -0.00808156 0.00811881 -0.00154183 3
186 1 0.153757 -5.47991 18.6964 -0.00193606 0.00112342 0.00675787 3
134 1 -6.26164 -4.34045 19.7194 -0.00966503 0.0114066 0.00547778 3
135 1 -6.3586 -1.88427 19.2885 0.00426652 -0.000481415 0.0111375 3
146 1 -4.1215 -5.39557 19.1473 -0.00124508 0.0174394 -0.0205889 3
147 1 -4.86532 -4.18775 19.2679 -0.000786749 0.0124565 -0.00914434 3
163 1 -2.67655 -5.4532 18.8025 0.00377629 -0.00544956 -0.00844741 3
148 1 -4.06695 -3.0118 18.8268 -0.000953141 0.000864262 -0.00344704 3
149 1 -4.86977 -1.87033 18.8471 0.00897478 -0.00104311 0.00800823 3
174 1 -2.02039 -4.21515 18.2441 -0.0141895 0.000386329 -0.0016128 3
164 1 -2.78931 -3.02605 18.1495 -0.00546701 0.0198772 -0.0162879 3
187 1 -0.579425 -4.30461 18.0529 -0.00980805 -0.00273507 0.00209917 3
150 1 -4.15529 -0.679276 18.3487 0.010502 0.0145575 -0.00100607 3
175 1 -2.105 -1.90244 17.4495 -0.00634133 0.0038292 -0.0186456 3
165 1 -2.82329 -0.655301 17.4823 -0.0116842 0.010427 -0.0109331 3
189 1 -0.678773 -1.88469 17.0664 0.0036714 -0.00986931 -0.0273991 3
188 1 0.0972311 -3.11907 17.4475 -0.00749745 -0.0017204 0.0015984 3
190 1 0.0130208 -0.628834 16.7159 0.00200999 0.00132081 -0.028146 3
243 1 5.67363 -5.70068 18.7981 0.0264564 0.0123928 -0.00366149 3
203 1 1.55084 -5.56377 18.4431 -0.00529296 0.0126012 -0.00586547 3
254 1 6.40452 -4.35941 18.7625 -0.00903397 0.00968686 0.00713397 3
226 1 4.2482 -5.60692 18.5499 -0.00551411 -0.00247009 -0.0167266 3
227 1 3.68042 -4.36338 17.9643 -0.000367411 0.00801268 -0.00527848 3
244 1 5.75471 -3.1228 18.3431 -0.0038751 -0.0122551 0.00620808 3
214 1 2.24426 -4.35167 17.8209 0.00433871 0.00901709 -0.0150048 3
255 1 6.43982 -1.83173 18.5105 -0.00984308 -0.00279792 0.00614519 3
228 1 4.44342 -3.08016 17.7128 -0.00650869 0.0160862 -0.00473515 3
245 1 5.79539 -0.655976 18.1868 -0.012061 0.00927353 0.00998533 3
229 1 3.77295 -1.85546 17.4043 -0.00887999 -0.00828735 -0.0195473 3
230 1 4.4252 -0.580505 17.6666 -0.00210339 -0.00624721 -0.00947682 3
204 1 1.63548 -3.10073 17.3639 0.00246175 0.00510186 -0.00746053 3
215 1 2.36411 -1.94094 16.9974 -0.00743886 -0.0119577 -0.00570882 3
205 1 1.58563 -0.668817 16.6769 -0.00860422 0.00666435 -0.0246033 3
267 1 7.74079 -4.29496 19.3527 -0.000286471 0.0138354 0.0192548 3
269 1 7.75423 -1.78199 19.1769 -0.0163902 0.0138457 0.00201665 3
283 1 9.81672 -5.54412 19.9577 -0.00223552 0.00740947 0.00696373 3
284 1 9.81578 -3.09232 19.9212 -0.000776558 0.0154538 0.0126684 3
285 1 9.8773 -0.666532 19.7776 -0.00939537 -0.000181044 0.00638845 3
294 1 10.5419 -4.36445 19.8906 -0.00656376 0.0007513 0.00138438 3
295 1 10.5325 -1.91609 19.8854 0.0047482 -0.00114072 -0.00328693 3
268 1 8.36556 -2.99883 19.5355 -0.00706158 0.0178332 0.015468 3
270 1 8.57868 -0.562611 19.4573 -0.00907324 -0.00114558 0.0102223 3
266 1 8.43477 -5.54968 19.7068 0.00723556 -0.00310963 0.00930107 3
96 1 -10.7916 0.61908 20.0192 -0.0103004 0.00204967 0.000484134 3
97 1 -10.8325 2.99556 20.1645 0.00787771 -0.00411318 0.0135825 3
98 1 -10.885 5.52486 19.9586 -0.00287936 -9.36275e-05 0.000866794 3
111 1 -9.32123 0.652232 19.8517 0.00681318 0.000142108 0.00754135 3
112 1 -8.52482 1.88776 19.901 0.00473061 0.00510259 0.00259046 3
113 1 -9.32682 3.0248 20.0995 -0.00168397 -0.00426776 0.00848732 3
114 1 -8.52872 4.29533 20.0464 0.00501534 -0.0242974 0.0175058 3
115 1 -9.27891 5.47211 19.9205 -0.00330887 -0.0163464 0.0115834 3
127 1 -6.97321 4.26196 20.0504 -0.00268226 -0.00516159 0.021527 3
126 1 -6.9639 1.81227 19.6783 -0.00896139 0.0016347 -0.0036428 3
138 1 -6.24922 5.50501 20.0553 -0.00607661 -0.00989693 -0.00396392 3
136 1 -6.34476 0.640224 19.226 0.0179973 0.00860078 0.0190757 3
178 1 -2.02377 5.39844 18.6772 -0.0139104 -0.00597007 -0.00897857 3
195 1 -0.545054 5.48781 18.3885 -0.00349407 -0.0138594 0.00187338 3
155 1 -4.87 5.39658 19.5788 -0.0102153 -0.0131382 -0.0110673 3
137 1 -6.18346 3.07868 19.5764 0.000411096 -0.0103747 0.00475055 3
153 1 -4.8611 2.97165 19.0271 0.00517398 -0.0215387 0.00144788 3
154 1 -4.11536 4.17825 19.0095 -0.0170703 -0.00365018 -0.0038088 3
167 1 -2.72602 4.15287 18.4475 -0.0128518 0.00254723 -0.000443527 3
152 1 -4.19308 1.75221 18.3235 0.0101909 -0.0189717 -0.00029149 3
151 1 -4.91678 0.498628 18.5993 -0.00362707 -9.64363e-05 0.0148344 3
194 1 0.0958474 4.2965 17.8155 -0.00887117 -0.00524444 -0.00430241 3
177 1 -2.02435 3.04483 17.6882 0.00178455 -0.0127613 -0.00345857 3
166 1 -2.85595 1.79421 17.6208 0.00585716 0.000234746 -0.0106638 3
193 1 -0.585553 3.05271 17.3055 -0.0116251 0.00317606 -0.00743443 3
176 1 -2.13213 0.585177 17.1368 -0.013669 0.00339967 -0.0323677 3
191 1 -0.688906 0.602037 16.8401 -0.00251048 0.00422792 -0.0315485 3
192 1 0.121165 1.85563 16.8953 -0.010288 -0.00183776 -0.0186236 3
258 1 6.41994 5.49007 19.0758 -0.0112607 -0.00319879 -0.0087668 3
235 1 3.63281 5.67209 18.2768 -0.00852109 -0.00303079 -0.00508961 3
218 1 2.14387 5.57745 18.1973 0.00756471 -0.00750045 -0.0166781 3
257 1 6.36534 3.04372 18.8072 -0.0106767 -0.011875 0.00601071 3
247 1 5.75178 4.31363 18.5618 0.00475061 0.00027813 0.0105971 3
234 1 4.35394 4.42368 17.9845 -0.00923818 -0.00688806 -0.0040615 3
207 1 1.53457 4.27382 17.833 0.0181854 -0.0110902 -0.00723184 3
246 1 5.90741 1.80653 18.1472 -0.00136257 -0.0129336 0.0144091 3
233 1 3.69101 3.11934 17.4976 -0.00630784 -0.00855286 -0.0105819 3
232 1 4.46852 1.87632 17.594 -0.00557329 0.00677674 0.000903808 3
256 1 6.57242 0.549593 18.346 0.0039408 0.00506268 0.00747249 3
217 1 2.24254 3.03483 17.2848 0.00480679 -0.0098499 -0.00334133 3
231 1 3.7916 0.64169 17.3512 -0.00489884 0.0121769 -0.0135737 3
206 1 1.57373 1.83477 16.8413 -0.0192468 0.00202462 -0.016398 3
216 1 2.37335 0.558627 16.7968 -0.00768489 -0.00669214 -0.0163835 3
275 1 7.8132 5.52204 19.5194 -0.00198951 -0.0127196 -0.00111279 3
271 1 7.79088 0.596899 19.1528 -0.00949506 -0.00682563 -0.000267974 3
273 1 7.69857 3.01605 19.4689 -0.00771104 -0.00693454 0.00417741 3
286 1 9.8489 1.8895 19.741 0.0101291 -0.00406793 0.00986525 3
287 1 9.78795 4.27931 19.9119 -0.00106792 -0.00302298 0.0182101 3
296 1 10.5422 0.604432 19.7832 0.00304126 -0.0086219 -0.004548 3
297 1 10.5497 3.08513 20.0659 -0.00731411 -0.0118587 0.00975409 3
298 1 10.53 5.5449 20.0028 0.00908157 0.000518426 0.00909434 3
272 1 8.49825 1.8407 19.4833 -0.00612982 0.00181056 0.00995176 3
274 1 8.41635 4.22964 19.7245 -0.00666042 -0.00835689 0.0122876 3
99 1 -10.7345 8.00106 20.1034 0.0104098 -0.00142529 -0.0273711 3
116 1 -8.57045 6.67983 20.1749 -0.0106564 -0.00205316 -0.0107087 3
117 1 -9.24865 7.9577 20.1439 -0.00165324 0.00208531 -0.0150637 3
118 1 -8.62676 9.19622 20.182 -0.000343145 0.000817139 -0.0141282 3
128 1 -7.11176 6.69615 20.24 0.0139821 -0.00709522 -0.0129321 3
129 1 -7.17683 9.09309 20.0822 0.00772911 -0.0016661 -0.0124507 3
139 1 -6.36309 7.91726 20.1114 -0.0141316 0.0163077 -0.0154097 3
157 1 -5.01107 7.87447 19.718 -0.00230988 -0.00182238 -0.0236382 3
158 1 -4.43307 9.17306 19.5836 -0.000119884 0.0101726 0.0100437 3
169 1 -2.99754 9.22741 19.4919 -0.00298363 0.0132967 0.0137551 3
179 1 -2.25332 7.93647 19.4118 0.00163934 -0.0106397 -0.0051163 3
197 1 -0.806519 7.92902 19.3782 -0.00371475 0.00555676 -0.00216191 3
198 1 -0.168834 9.22637 19.4477 0.0028044 0.00338321 -0.00714117 3
156 1 -4.17529 6.58295 19.5572 0.00467813 -0.00864223 -0.0249114 3
168 1 -2.7719 6.60296 19.0794 -0.00163248 -0.0005094 -0.00659222 3
196 1 -0.0145289 6.74696 18.8845 -0.00759473 -0.00932948 0.006362 3
209 1 1.26989 9.16347 19.5812 -0.00859921 -0.00286957 0.00144852 3
219 1 2.10751 8.02589 19.1934 -0.0162174 0.00261303 -0.000129185 3
237 1 3.52319 7.93546 19.4786 -0.00344748 1.13741e-05 -0.00509402 3
238 1 4.15323 9.21458 19.7693 -0.00891293 -0.00751074 0.00297856 3
249 1 5.56081 9.18973 19.7086 -0.00604949 -0.0101763 0.000667421 3
259 1 6.26202 7.97968 19.4539 -0.012582 -0.00373643 -0.01481 3
248 1 5.61502 6.74128 19.1481 0.00949399 -0.012324 -0.0205531 3
236 1 4.23544 6.77019 18.9918 -0.00667006 0.00640875 -0.024822 3
208 1 1.42771 6.73912 18.858 -0.00220955 -0.0101903 -0.00978551 3
277 1 7.6704 7.9458 19.723 -0.0247731 -0.016871 -0.0220334 3
276 1 8.48897 6.73748 19.8555 -0.000809547 -0.00667422 0.0111024 3
278 1 8.34017 9.19893 19.9425 0.000851716 -0.00386527 -0.00818479 3
288 1 9.8263 6.77147 20.1772 -0.0101182 -0.00261362 0.0103077 3
289 1 9.80464 9.25903 20.0244 -0.00507374 -0.0123206 0.000715484 3
299 1 10.5043 8.04072 20.1491 -0.0056716 0.00721687 -0.0017959 3
