ITEM: TIMESTEP
47300
ITEM: NUMBER OF ATOMS
60
ITEM: BOX BOUNDS pp pp pp
-1.4715758017245314e+01 1.5057610017245315e+01
-1.2710055654020760e+01 1.2664508654020761e+01
-5.0001035148846022e+01 1.0000103514884636e+02
ITEM: ATOMS id type x y z vx vy vz c_coord
20 1 -3.49338 -1.25474 26.523 0.00755337 -0.00838571 0.00146307 1
60 1 -4.26471 -1.0906 25.5739 -0.0269112 0.0201538 0.00968955 2
2 1 3.4723 -1.28662 25.9913 -0.0185246 0.00703029 -0.0431102 1
8 1 -1.06064 -0.953898 28.6211 0.0123398 -0.000392718 0.0217437 3
28 1 -1.49414 -2.36166 28.456 0.0251624 0.00342127 0.0148916 3
44 1 -2.75918 -2.23101 29.1296 0.0145109 0.0146155 0.0633329 2
52 1 -0.608421 -2.88787 29.5611 0.0208004 0.021962 0.00130049 3
27 1 -2.10075 -0.200996 29.3909 -0.00228304 -0.0179386 0.0330323 3
42 1 -2.46875 -1.16385 30.3646 -0.0155076 -0.0176861 0.010924 3
36 1 -0.479277 -4.11424 30.2911 -0.00807124 -0.00974322 0.0432844 2
3 1 -1.40144 -1.08333 33.0054 -0.00898485 0.020204 0.00878134 2
18 1 -2.15238 -0.773003 31.6811 -0.00397874 0.0318649 0.0347519 3
4 1 -0.851344 -2.27392 33.806 0.035394 -0.0441093 -0.0250126 2
7 1 0.431947 -0.718596 28.4184 0.0451357 -0.024226 0.0212874 3
26 1 1.36171 -1.19828 29.353 -0.0135005 0.00519542 0.0264735 3
40 1 2.72587 -0.552872 29.3249 0.0163061 -0.00118329 -0.00957843 2
50 1 0.892506 -2.46124 29.8525 0.00988467 0.0123616 0.0404365 3
16 1 4.21976 -2.95314 30.8594 -0.0264131 -0.0116125 0.0256221 1
35 1 1.46735 -3.52304 30.7615 -0.00572045 0.0394896 0.0298296 3
59 1 2.93107 -3.13489 31.3675 -0.0257788 0.0259967 0.0137628 3
12 1 0.630925 -4.30888 31.5974 -0.0233327 0.0314233 -0.00572953 2
15 1 4.07785 -1.36146 31.7079 -0.00481181 0.00611707 -0.00525256 2
57 1 3.22003 -2.23086 32.8642 0.0069234 0.0324642 -0.00903099 3
33 1 4.385 -2.98234 33.7574 -0.00912204 -0.0134778 0.0238159 3
22 1 5.6111 -1.08462 33.3193 0.0151783 0.00270689 0.039929 3
39 1 5.20835 -0.279779 32.0675 0.0404409 -0.00390064 -0.0084664 3
49 1 0.0286319 1.51719 29.1268 -0.0231996 0.00977542 0.0411833 3
51 1 -1.31304 1.07513 29.5834 0.0456563 0.0131253 0.0155364 3
32 1 -1.29584 1.50721 30.9203 -0.0190801 -0.0309518 0.0296288 3
56 1 -1.87282 0.799849 31.7476 0.0558134 -0.00164815 0.0269078 3
54 1 -1.04132 1.92164 33.8854 -0.0129432 0.000326883 0.0251744 2
17 1 -1.55559 0.807007 32.9783 -0.0116894 -0.0259372 0.0308783 2
10 1 -0.0674998 2.2394 31.1751 -0.02144 -0.0375023 0.00090831 3
38 1 2.23823 0.674991 28.6277 -0.0209968 -0.012624 0.0222212 3
25 1 0.87303 0.59106 28.4789 -0.00996551 0.0258691 0.0415278 3
30 1 0.369026 2.02356 33.9191 0.0110598 -0.0144135 0.0201779 3
14 1 2.60987 1.92834 28.9135 0.0127248 0.0324562 0.0501498 3
31 1 0.647304 2.27158 30.1634 0.0060207 0.00728592 0.0133482 3
55 1 1.90753 2.45333 30.0475 -0.0216961 -0.00423424 0.00549121 3
1 1 4.10346 2.08692 29.1155 0.0248163 0.0237999 0.0116733 2
53 1 2.71581 2.49073 31.1084 -0.0130722 0.00436917 0.0325553 3
13 1 4.08227 1.94961 30.6792 -0.0461367 0.0139924 -0.00875474 3
9 1 0.756108 2.13813 32.4648 0.0089337 -0.00502679 0.0374422 3
29 1 2.02086 2.17998 32.0268 0.0047273 -0.00278396 0.0212178 3
45 1 2.82767 2.10961 33.3206 -0.0122227 -0.02976 0.0598441 3
37 1 4.62948 1.17202 31.8292 -0.0278818 0.00572004 0.0305247 3
21 1 4.12763 1.40318 33.298 0.0071813 -0.0182211 0.0156568 3
19 1 -0.402581 -1.86495 35.017 -0.00949311 -0.0493543 -0.00307057 2
46 1 4.68972 -1.78045 34.4461 0.0323431 -0.0409193 0.0109156 3
11 1 2.73614 -2.85209 36.5769 0.00766097 -0.000672297 0.0786539 1
58 1 0.578835 -2.16933 36.0438 0.0080512 -0.000172076 0.0197851 2
34 1 2.21985 -2.03643 35.97 0.00436453 -0.0234979 0.0563057 2
48 1 3.6977 -1.24422 35.2671 0.00971998 -0.0424071 0.0104888 2
24 1 3.38065 -0.0320247 36.0586 0.0273255 0.00420844 0.0274129 2
47 1 1.72578 2.5096 34.3857 0.0186144 -0.00251142 0.0493405 3
5 1 4.85636 1.84033 34.2338 0.0159969 0.00150464 0.0229808 2
23 1 2.04459 1.70901 35.6029 0.00251437 0.0101219 0.0242026 2
6 1 2.68225 0.539158 34.83 -0.0317407 -0.019096 0.0137957 2
41 1 4.37988 1.17203 37.6825 -0.00862334 -0.013863 0.0233282 2
43 1 3.2948 1.23944 38.2957 0.0306008 -0.00122348 0.0188505 1
