ITEM: TIMESTEP
25700
ITEM: NUMBER OF ATOMS
60
ITEM: BOX BOUNDS pp pp pp
-1.4715758017245314e+01 1.5057610017245315e+01
-1.2710055654020760e+01 1.2664508654020761e+01
-5.0001035148846022e+01 1.0000103514884636e+02
ITEM: ATOMS id type x y z vx vy vz c_coord
8 1 -1.1199 -1.35713 22.1725 -0.0134144 0.0107099 0.059736 3
7 1 0.345205 -1.34255 21.876 -0.0268532 0.0135929 0.0466176 3
25 1 1.16544 -0.118043 21.6168 -0.00683158 -0.0289375 0.0402439 3
51 1 -0.9521 1.39226 22.2144 -0.0261227 0.00665834 0.0595228 3
49 1 0.39057 1.07049 21.9662 -0.0202646 0.00340753 0.040719 3
28 1 -1.43839 -2.44103 23.2431 -0.00982731 -0.0214415 0.0385378 3
42 1 -1.92882 -0.218463 23.8002 -0.0180683 0.00769629 0.0221908 3
44 1 -1.65503 -1.39305 24.2325 -0.00337418 -0.00251749 0.0335946 3
52 1 -0.621916 -3.42408 23.9829 0.00919858 -0.0174754 -0.0036722 3
20 1 -2.19182 -2.25056 25.4152 -0.0210075 -0.0144491 0.0088304 2
36 1 -0.719423 -3.98204 25.5166 -0.00431439 -0.0078429 0.0170591 3
60 1 -2.22825 -3.68159 25.2507 -0.00145465 0.0175269 0.0219111 3
38 1 2.40776 -0.251238 22.5551 -0.00715356 0.00482881 0.0390438 3
26 1 0.855623 -1.91195 23.1743 -0.017488 0.00360796 0.0710262 3
40 1 2.28229 -1.4842 23.3142 0.00716901 -0.0109363 0.0426113 3
50 1 0.770592 -3.11711 24.0039 -0.00776614 -0.0263144 0.0336382 3
16 1 2.94823 -1.64677 24.5065 0.0220388 0.00241016 0.0602984 3
35 1 1.16362 -3.03059 25.5078 -0.000882081 -0.00451781 0.0172084 3
2 1 4.00577 -0.911114 25.1812 0.0320514 0.0217227 0.0495133 3
59 1 2.54611 -2.64853 25.5047 0.0162708 0.0239325 0.0390058 3
12 1 0.33662 -3.39935 26.4851 -0.022088 -0.0036462 0.0318267 3
11 1 0.724652 -2.47689 27.6896 0.0156578 0.00559254 0.0549298 3
15 1 3.93359 -1.32272 26.4968 0.00676461 -0.00908537 0.0490951 3
57 1 3.41218 -2.59748 26.6306 -0.0116864 0.00634921 0.0386421 3
33 1 2.22573 -2.5879 27.9636 0.00889564 -0.00592706 0.0366076 3
39 1 4.23716 0.0453944 27.3935 0.0365299 0.00921991 0.0253827 4
27 1 -1.63829 0.115605 22.412 0.00279019 -0.00339034 0.0234537 3
4 1 -2.06867 0.64456 27.3897 0.00937495 0.0388703 0.0641546 2
32 1 -0.923937 2.29728 23.2966 -0.0122666 0.0313439 0.0206655 3
18 1 -2.13588 0.803804 24.677 0.0187445 0.0214342 0.025887 3
56 1 -2.00146 2.10181 24.0662 -0.00505288 -0.025287 0.0487613 3
54 1 -1.81324 2.7333 25.5312 0.0259861 -0.0141277 0.0387768 3
3 1 -2.79397 0.672931 26.0151 0.00435423 -0.000196942 0.042474 3
30 1 -0.391365 2.49357 26.0397 3.58584e-05 -0.0206123 0.0259524 3
17 1 -3.11566 1.96313 26.0716 0.0152487 -0.00564137 0.0670113 2
47 1 0.10526 3.20937 27.1185 -0.0120518 0.0120532 0.013254 2
10 1 0.0215644 1.77412 24.076 0.00512115 0.0126609 0.0409629 3
31 1 1.07745 1.77124 23.0131 -0.0111854 0.000706077 0.00526652 3
14 1 3.08862 0.770845 23.296 0.0157409 0.0468619 0.0437686 3
23 1 1.16839 3.05434 27.9048 -0.0270129 -0.0166597 0.03388 2
55 1 2.46963 1.7903 23.6281 0.030801 -0.000633325 0.0331499 3
1 1 4.1289 0.399308 24.4087 -0.00956416 -0.0193504 0.00666091 3
53 1 3.03236 2.37668 24.7113 -0.00538775 0.00538432 -0.0203991 3
9 1 0.937391 2.22405 25.2077 0.013754 -0.0170458 0.00497633 3
29 1 2.19281 3.21751 25.2791 0.0158343 -0.0215454 0.0155997 3
13 1 3.93885 1.58017 25.5555 -0.028772 0.0271079 0.026132 3
45 1 2.77175 3.55912 26.6769 0.00524789 -0.0135068 0.0253477 2
37 1 4.3103 1.48301 26.9346 -0.0137221 -0.0136638 0.0274347 3
21 1 3.70642 2.71566 27.4256 -0.0010061 -0.00437636 0.0473807 3
58 1 -1.1533 -1.30231 29.0692 0.0103424 -0.0104091 0.0126781 2
46 1 2.32283 -1.1505 28.4493 0.00870746 -0.0212451 0.0398428 3
34 1 0.280955 -1.53416 28.8931 0.00658244 0.00906522 0.0426333 3
22 1 3.75443 -0.555332 28.4073 0.0106398 0.0199462 0.0122979 3
48 1 1.26749 -0.509836 29.1539 -0.0109027 0.00687974 0.007539 3
19 1 -1.3805 0.0381169 28.3118 -0.0221494 -0.0123887 0.0551895 2
43 1 -0.384683 0.848599 29.7242 0.0327054 0.00384697 0.0632251 2
41 1 -0.244281 0.182512 31.1137 0.0510948 -0.0113322 0.0626559 2
6 1 2.0318 1.9115 28.7899 0.0212929 -0.0102983 0.0357232 3
5 1 3.47407 2.29812 28.8562 0.0286859 -0.00907501 0.0389643 3
24 1 1.10713 0.977016 29.3421 0.0179373 0.0243389 0.0435211 3
