ITEM: TIMESTEP
16100
ITEM: NUMBER OF ATOMS
60
ITEM: BOX BOUNDS pp pp pp
-1.4715758017245314e+01 1.5057610017245315e+01
-1.2710055654020760e+01 1.2664508654020761e+01
-5.0001035148846022e+01 1.0000103514884636e+02
ITEM: ATOMS id type x y z vx vy vz c_coord
8 1 -0.394599 -1.12343 19.737 0.0307501 -0.00143264 0.0299414 3
28 1 -1.26912 -2.02743 20.0667 -0.0147836 0.0160186 0.0344789 3
44 1 -2.57498 -1.50738 20.3162 0.00158305 0.0276421 0.0560077 3
52 1 -0.767972 -3.05977 20.5889 -0.00728147 -0.00141236 0.011558 3
20 1 -2.90147 -1.67542 21.677 -0.00267148 -0.0231013 0.0327882 3
36 1 -1.01658 -3.46766 21.8398 0.00440098 -0.000427382 0.0494451 3
42 1 -2.26152 -0.0779582 20.0952 0.00468545 0.0101113 0.0520023 3
7 1 0.913113 -1.08362 19.9735 0.00927729 -0.0118531 0.0375158 3
25 1 1.76433 -0.311602 20.3552 -0.0166816 -0.0170018 0.019283 3
26 1 1.29297 -2.22716 19.7626 -0.00257524 0.0258218 0.0230182 3
38 1 2.88698 -0.647273 19.5454 -0.00112148 8.65182e-05 0.026655 3
40 1 2.64625 -1.94239 19.5254 0.00917322 -0.000168494 0.0287402 3
50 1 0.66765 -3.41618 20.3372 0.00834847 0.00153542 0.0345373 3
16 1 3.33893 -2.31884 20.7918 -0.0267614 0.0192207 0.0256989 3
35 1 1.54012 -3.63908 21.4256 -0.00368971 0.00137615 0.050102 3
2 1 3.88677 -1.10945 21.3784 -0.00632636 -0.0179396 0.0288541 3
59 1 2.93816 -3.20178 21.9815 0.0061456 0.0104061 0.0451241 4
27 1 -0.91518 0.00523891 19.967 0.00288143 -0.00612314 0.0215138 3
51 1 -0.0883554 0.966797 20.0957 -0.00310317 -0.00294006 0.0385572 3
32 1 -0.867018 2.27627 20.0054 0.00604717 -0.00125491 0.0511739 3
18 1 -2.95932 1.02872 20.5716 0.00771849 -0.0072037 0.0543176 3
56 1 -2.27252 2.22781 20.5838 0.00161928 0.00616617 0.0493917 3
54 1 -2.08045 2.68823 22.0322 -0.0196211 -0.00397711 0.060097 3
10 1 0.486299 2.89593 20.0285 0.0139663 0.0149876 0.0541215 3
49 1 1.23119 0.959807 20.5698 0.0347564 -0.0141283 0.0292972 3
31 1 1.71015 2.04849 19.7125 0.00763263 -0.0141086 0.0451022 3
9 1 0.590837 2.97857 21.4102 -0.0282916 -0.0364749 0.0316108 3
14 1 3.61575 0.569978 19.7345 0.0113996 -0.00269137 0.012121 3
55 1 3.08646 1.94195 19.6606 0.00813916 0.00713495 0.0165402 3
1 1 3.99216 0.230445 21.0535 -0.00344002 -0.00397816 0.0406083 3
53 1 3.30087 2.52823 21.0755 0.00477308 -0.0135903 0.0216351 3
29 1 2.10125 2.8664 21.7106 -0.0168155 -0.0116707 0.0538191 3
13 1 4.23734 1.47188 21.9007 0.00122136 -0.0108087 0.0313986 4
4 1 -2.81176 -0.53382 22.6626 0.00627182 0.0132438 0.0518989 3
60 1 -2.09585 -2.60596 22.4965 0.00900127 0.0132056 0.0336964 4
19 1 -2.18143 -0.637679 23.8541 -0.0293451 0.00477771 0.0697402 3
58 1 -1.52377 -1.79597 23.6425 -0.00796466 -0.0114901 0.0489338 3
34 1 -0.502415 -2.16544 24.1369 0.0375317 -0.014552 0.0311772 3
12 1 0.23279 -3.8227 22.2751 0.0194942 0.0222769 0.0348571 3
48 1 0.289556 -0.92932 24.8067 -0.00220467 0.00721225 0.0474815 3
11 1 0.431091 -3.30413 23.7029 0.0319677 -0.00793178 0.0588012 3
15 1 3.53312 -1.09836 22.648 -0.00512017 0.0129865 0.0320075 3
57 1 3.24936 -2.42913 23.2729 -0.0122359 -0.00782189 0.0744361 4
46 1 1.43561 -1.1707 24.4492 0.0243363 0.00994473 0.0456584 3
33 1 1.68216 -2.66778 24.0929 -0.01146 -0.0257317 0.0300962 4
39 1 2.69671 -0.041434 23.1452 0.0152914 0.0121205 0.0682198 3
22 1 2.29019 -0.189852 24.4968 0.0267687 -0.00642357 0.0575616 3
3 1 -3.236 0.642032 22.0642 -0.00396503 -0.033627 0.0150059 3
30 1 -0.561299 2.92742 22.3993 0.0237892 -0.00370488 0.0405505 3
17 1 -3.26135 2.0667 22.664 -0.00968115 0.0236259 0.0173256 3
47 1 -0.322195 3.45795 23.693 -0.0192486 -0.00770735 0.0316359 3
43 1 -1.63696 0.487795 24.194 0.00447368 -0.0115978 0.0561878 3
41 1 -1.86834 1.65164 25.2266 0.0264315 -0.0445953 0.127993 3
23 1 -0.683151 2.26136 24.7124 0.0346424 -0.0164839 0.0389909 3
24 1 -0.367656 0.29846 24.7651 0.00284973 0.00733701 0.0533274 3
45 1 1.93052 3.42564 23.2119 0.00522552 -0.0356634 0.0522535 3
37 1 3.45802 1.20732 23.3166 -0.0107353 0.0170454 0.0313926 3
6 1 0.413499 1.25556 24.6504 0.00348455 -0.00298686 0.048765 3
21 1 2.53479 2.37354 24.063 0.0138112 0.00450169 0.0611433 3
5 1 1.62676 1.69368 24.9848 -0.019291 0.0242951 0.0469679 3
