ITEM: TIMESTEP
49400
ITEM: NUMBER OF ATOMS
60
ITEM: BOX BOUNDS pp pp pp
-1.4715758017245314e+01 1.5057610017245315e+01
-1.2710055654020760e+01 1.2664508654020761e+01
-5.0001035148846022e+01 1.0000103514884636e+02
ITEM: ATOMS id type x y z vx vy vz c_coord
20 1 -3.70958 -1.33299 26.3086 -0.024484 0.00200307 -0.0147877 1
60 1 -4.42982 -0.536542 25.6945 0.00858733 0.0309047 -0.0159217 2
2 1 3.10934 -1.18885 24.9137 -0.013642 -0.0107495 -0.061862 1
8 1 -0.803642 -0.903647 28.7887 0.00885525 -0.020566 0.0239967 3
28 1 -1.24891 -2.33689 29.3988 0.00983254 -0.0187586 0.0185534 3
44 1 -2.47462 -2.4799 30.1769 -0.00131678 0.0184939 0.0602461 2
52 1 -0.11326 -3.24328 29.7785 0.0241444 -0.0290762 0.00700031 3
27 1 -1.4762 -0.261866 29.8347 0.00639356 -0.000102726 0.0225724 3
42 1 -2.48458 -0.988812 30.6332 0.0336029 0.000405628 0.0302703 3
36 1 -1.02898 -4.0454 30.7516 -0.040636 0.00114534 0.0003964 2
3 1 -1.6052 -1.48831 33.5582 -0.0189132 -0.0273197 0.0165183 2
18 1 -2.22256 -0.762751 32.1148 0.00762466 -0.000392706 0.00306313 3
4 1 -0.410891 -2.33214 33.7052 0.00555026 0.0152054 -3.89847e-06 2
12 1 0.161887 -3.848 31.7327 0.0133735 0.0183413 0.0421269 2
7 1 0.523542 -0.601242 28.923 -0.0132888 0.002035 0.025726 3
26 1 1.60005 -1.09235 29.7258 -0.00470601 0.0143878 -0.00306006 3
40 1 2.79973 -0.62394 29.1964 0.0188145 0.00644764 -0.00811899 2
50 1 0.856676 -2.14817 30.4172 -0.00339012 0.00333771 0.0159232 3
16 1 3.88553 -2.69493 31.0651 -0.0157657 0.00296484 -0.0344429 2
35 1 1.35055 -2.9042 31.5236 -0.00360954 0.0061646 0.0713911 3
59 1 2.76258 -2.784 32.1436 0.00289627 0.0122709 0.0298904 3
15 1 4.48731 -1.48442 31.6755 0.0181198 -0.0180847 -0.00289705 3
57 1 3.68058 -1.91848 33.0061 -0.00894726 0.0241721 0.0239537 3
33 1 4.29521 -2.97049 33.6793 0.026229 -0.00463983 0.0173777 3
22 1 5.52066 -0.902409 33.7419 -0.0169817 0.00517099 0.0273803 3
39 1 5.16606 -0.333734 32.4449 -0.00230985 -0.0073314 0.0449099 3
49 1 -0.298363 1.59161 29.4365 -0.0106124 -0.00968035 -0.001449 3
51 1 -1.39058 0.90888 30.0614 -0.0197212 0.0190471 0.0262367 3
32 1 -1.21619 1.43685 31.4674 0.0119598 -0.0259962 0.0775788 3
56 1 -1.8203 0.498121 32.4257 -0.0150304 -0.00616199 0.040771 3
10 1 -0.015722 2.11176 31.6445 -0.0151945 0.0086216 0.0298154 3
38 1 2.16832 0.963492 29.0893 -0.0180275 0.0162827 0.0105092 3
25 1 0.84717 0.748821 28.9189 0.0289221 0.03122 0.016732 3
14 1 2.8949 2.13745 28.9992 0.0130796 0.0148536 0.0308214 3
31 1 0.452756 2.56498 30.4292 0.0233465 0.0256677 -0.00153362 3
55 1 1.95392 2.71383 30.2738 0.0166244 0.0117939 0.00864931 3
1 1 4.10908 2.38134 29.8526 -0.0343699 -0.00506081 0.056525 2
53 1 2.62946 2.55422 31.6432 0.0218106 -0.010346 -0.00352842 3
13 1 3.99427 1.98695 31.3038 0.00292514 0.000968864 0.0397729 3
9 1 0.709064 2.08218 32.8677 0.017234 0.00362757 0.0151992 3
29 1 2.00397 2.24453 32.8685 -0.0136007 0.0108787 0.0245579 3
45 1 2.84727 1.61654 34.0875 0.00868899 -0.0102016 0.0321802 3
37 1 4.30034 0.870732 32.2787 -0.0203145 0.0100258 0.0220206 3
21 1 4.21264 1.42731 33.6764 0.0287355 0.0180398 0.0479719 3
19 1 0.289428 -3.0097 35.0841 0.0619511 -0.0517686 0.0124562 2
46 1 4.61563 -1.85372 34.7722 -0.0346171 0.00877619 0.00897372 3
11 1 2.77445 -2.76844 37.9681 -0.0175732 0.0205996 0.0411253 1
58 1 0.876504 -2.16182 35.8413 0.0456273 -0.0132041 0.00287896 1
34 1 2.32565 -2.53276 36.8838 -0.000259407 -0.0328335 0.02057 2
48 1 3.58748 -1.8722 35.9047 0.0136049 -0.00927818 0.0245494 3
24 1 3.74221 -0.468742 35.8719 -0.0131452 -0.0311182 -0.0165122 2
17 1 -1.51852 0.531839 34.1742 0.0148256 0.0222015 0.0224696 2
54 1 -0.892816 1.70343 34.6282 0.00654441 -0.0536405 0.0349336 2
30 1 0.48479 2.08145 34.3096 -0.0360207 0.0116423 0.0237638 3
47 1 1.649 2.13685 35.0814 0.0168841 -0.0405086 0.022099 3
5 1 5.3792 1.37831 34.6342 0.0170694 -0.0537334 -0.00851422 2
23 1 2.18741 1.6164 36.3485 0.00572947 -0.01382 0.0427358 2
6 1 2.22653 0.137711 35.9877 0.00185412 -0.0196079 0.0760006 2
41 1 4.78485 1.24338 38.2734 0.0211911 0.0212475 0.0366937 2
43 1 3.65148 1.12448 38.7312 0.0276334 -0.0106266 0.012149 1
