ITEM: TIMESTEP
47400
ITEM: NUMBER OF ATOMS
60
ITEM: BOX BOUNDS pp pp pp
-1.4715758017245314e+01 1.5057610017245315e+01
-1.2710055654020760e+01 1.2664508654020761e+01
-5.0001035148846022e+01 1.0000103514884636e+02
ITEM: ATOMS id type x y z vx vy vz c_coord
20 1 -3.48643 -1.26338 26.5243 0.00628992 -0.00886199 0.00114484 1
60 1 -4.29079 -1.07011 25.5839 -0.0252066 0.0208471 0.0102152 2
2 1 3.45371 -1.27909 25.9484 -0.0186748 0.00799759 -0.0426273 1
8 1 -1.04693 -0.952815 28.6418 0.0154111 0.00256099 0.0192842 3
28 1 -1.46868 -2.35697 28.4702 0.0259346 0.00575539 0.0135532 3
44 1 -2.74704 -2.21853 29.1939 0.00933518 0.00974928 0.0651529 2
52 1 -0.584298 -2.86892 29.5652 0.027472 0.0156565 0.00687325 3
27 1 -2.0985 -0.215753 29.4224 0.00658185 -0.0111099 0.0297667 3
42 1 -2.4849 -1.18171 30.3757 -0.0168542 -0.0179602 0.0118252 3
36 1 -0.487862 -4.12366 30.3354 -0.00889437 -0.00883079 0.0452128 2
3 1 -1.41229 -1.06118 33.0117 -0.0130409 0.0246253 0.00323402 2
18 1 -2.15565 -0.743064 31.7172 -0.00267852 0.0273363 0.0372646 3
4 1 -0.817135 -2.31783 33.7788 0.0329759 -0.0444903 -0.0298282 2
7 1 0.473135 -0.741266 28.4395 0.0371244 -0.0206712 0.0209867 3
26 1 1.34729 -1.19532 29.3803 -0.014723 0.000913634 0.0281616 3
40 1 2.74457 -0.554472 29.3159 0.0207081 -0.00195814 -0.00852652 2
50 1 0.90107 -2.44982 29.893 0.00698627 0.0105281 0.0403982 3
16 1 4.19207 -2.96252 30.8864 -0.0288431 -0.00711863 0.0283078 1
35 1 1.46422 -3.48244 30.7922 -0.000492419 0.0416712 0.0313913 3
59 1 2.90613 -3.10793 31.3833 -0.024019 0.0278025 0.0179199 3
12 1 0.605635 -4.27678 31.5886 -0.0276042 0.0325774 -0.011753 2
15 1 4.074 -1.35688 31.7048 -0.00305212 0.00292415 -0.000673947 2
57 1 3.23023 -2.19938 32.851 0.013678 0.0306133 -0.0172721 3
33 1 4.37355 -2.99512 33.7793 -0.0137365 -0.0123859 0.0195167 3
22 1 5.62624 -1.08122 33.3604 0.0149801 0.00383447 0.0419124 3
39 1 5.24526 -0.285484 32.058 0.0333604 -0.00729811 -0.0106967 3
49 1 0.00416327 1.52561 29.1671 -0.0250412 0.00730084 0.0390531 3
51 1 -1.26774 1.08681 29.5988 0.0442861 0.0102215 0.0156354 3
32 1 -1.31317 1.47891 30.9479 -0.0147467 -0.0245065 0.0242155 3
56 1 -1.81864 0.79627 31.7738 0.0518795 -0.00638303 0.0266533 3
54 1 -1.05804 1.92155 33.9111 -0.01952 -0.000752768 0.026113 2
17 1 -1.56658 0.78042 33.0132 -0.00997189 -0.0264235 0.0397048 2
10 1 -0.0893103 2.20137 31.1805 -0.0221183 -0.0384948 0.00996248 3
38 1 2.216 0.661906 28.6484 -0.0230453 -0.0134278 0.0195056 3
25 1 0.862482 0.616561 28.5202 -0.0113549 0.024804 0.0409321 3
30 1 0.385436 2.01024 33.9378 0.0204706 -0.01238 0.017097 3
14 1 2.62589 1.96318 28.9648 0.0193075 0.036683 0.0521377 3
31 1 0.652778 2.27896 30.1751 0.00481364 0.00744122 0.0101193 3
55 1 1.88755 2.44958 30.0525 -0.0183959 -0.0030434 0.00476739 3
1 1 4.12609 2.11002 29.1301 0.0204832 0.0224254 0.0174116 2
53 1 2.70595 2.49597 31.1357 -0.00659422 0.00632684 0.0217552 3
13 1 4.03563 1.96351 30.6696 -0.0468825 0.013717 -0.0103933 3
9 1 0.761898 2.13333 32.5005 0.00258579 -0.00459104 0.0338141 3
29 1 2.02538 2.176 32.0538 0.00409746 -0.00532876 0.0332785 3
45 1 2.81244 2.08158 33.3815 -0.0181169 -0.0264235 0.0617052 3
37 1 4.60235 1.17676 31.8583 -0.0263094 0.00374671 0.0273433 3
21 1 4.13268 1.38513 33.312 0.00283026 -0.0178946 0.0124225 3
19 1 -0.408893 -1.91483 35.0173 -0.00278012 -0.0501142 0.00470526 2
46 1 4.72293 -1.82022 34.4564 0.0339491 -0.0383674 0.00999807 3
11 1 2.74992 -2.86206 36.6626 0.0187142 -0.0172929 0.0914493 1
58 1 0.58717 -2.16856 36.0624 0.00907325 0.00171719 0.0173328 2
34 1 2.2186 -2.04971 36.0179 -0.005663 -0.00478491 0.0406524 2
48 1 3.70498 -1.28942 35.2795 0.00391955 -0.0463668 0.0151095 2
24 1 3.40949 -0.0289971 36.0877 0.0294777 0.00141451 0.0281155 2
47 1 1.74576 2.50531 34.4334 0.0212469 -0.00583528 0.0456495 3
5 1 4.87433 1.84183 34.259 0.020023 0.00146509 0.0274962 2
23 1 2.04605 1.72121 35.6277 0.000954155 0.0132541 0.0254093 2
6 1 2.64939 0.520342 34.8418 -0.0330101 -0.0190208 0.012123 2
41 1 4.37194 1.15914 37.7069 -0.0067676 -0.011871 0.0252531 2
43 1 3.32551 1.23797 38.3141 0.0307344 -0.00170811 0.0180252 1
