ITEM: TIMESTEP
3700
ITEM: NUMBER OF ATOMS
60
ITEM: BOX BOUNDS pp pp pp
-1.4715758017245314e+01 1.5057610017245315e+01
-1.2710055654020760e+01 1.2664508654020761e+01
-5.0001035148846022e+01 1.0000103514884636e+02
ITEM: ATOMS id type x y z vx vy vz c_coord
8 1 -0.725315 -1.36466 10.9599 0.000427044 -0.00376419 0.0898544 3
20 1 -2.99505 -1.7263 13.6961 0.00925238 0.00222364 0.100221 3
27 1 -1.444 -0.113668 10.9384 -7.03631e-05 -0.00340033 0.0887736 3
28 1 -1.43399 -2.20557 11.9082 -0.000155318 0.00821532 0.0907537 3
36 1 -1.13536 -3.34393 14.0888 0.00308779 0.00237714 0.100728 3
42 1 -2.57003 -0.251936 11.8349 0.00459205 0.00022318 0.0947009 3
44 1 -2.54742 -1.51787 12.3906 0.00822687 -0.00196245 0.0992642 3
52 1 -0.696958 -3.14525 12.751 0.000103498 -0.0021174 0.0993341 3
4 1 -3.5612 -0.677687 14.5267 0.00696861 0.00161896 0.103902 3
12 1 0.00249264 -3.59286 14.9463 -0.00592319 -0.00358477 0.106998 3
19 1 -3.04735 -0.858845 15.85 0.0091728 0.00414913 0.097861 3
58 1 -2.27332 -2.09069 15.874 0.00551973 -0.00370292 0.10012 3
60 1 -2.2502 -2.60357 14.5432 0.00692791 -0.000389999 0.104962 3
7 1 0.72297 -1.38771 10.9792 -0.00422373 -0.00591071 0.0868443 3
16 1 3.00635 -1.71478 13.7178 -0.00971635 0.00239079 0.0994053 3
25 1 1.42798 -0.137011 10.9603 0.000234429 0.00148676 0.0915551 3
26 1 1.39537 -2.21678 11.8998 -0.00207797 0.000864761 0.0943473 3
35 1 1.14276 -3.34661 14.0778 0.0024635 0.00240038 0.100661 3
38 1 2.55207 -0.248978 11.8243 -0.00743245 0.00161947 0.0915178 3
40 1 2.53592 -1.54502 12.3739 -0.00416342 0.0012927 0.100726 3
50 1 0.738442 -3.13543 12.735 0.000993632 0.000796855 0.0980635 3
2 1 3.54507 -0.658463 14.535 -0.00731467 -0.00060864 0.103305 3
15 1 3.03816 -0.849513 15.8433 -0.0139285 0.00107203 0.10227 3
57 1 2.26891 -2.07409 15.8897 -0.00766112 -0.000975762 0.10223 3
59 1 2.26279 -2.59838 14.5632 -0.00485063 0.000794217 0.103533 3
3 1 -3.53957 0.661172 13.9647 0.00536027 -0.00128131 0.0984371 3
9 1 -0.00232596 3.59511 13.511 -0.000251497 0.00437102 0.0983789 3
10 1 -0.0106194 2.97229 12.209 -0.00182683 -0.00228438 0.0954466 3
18 1 -3.01791 0.824311 12.6296 0.00507111 -0.00239203 0.103388 3
32 1 -1.14498 2.19076 11.7865 0.00376348 0.000103055 0.0977635 3
51 1 -0.71208 1.11522 10.9687 0.000460434 0.00207385 0.0943893 3
54 1 -2.30509 2.68937 13.8766 0.00616266 0.00194323 0.0953227 3
56 1 -2.29377 2.05166 12.6118 0.00147448 -0.00082145 0.0992548 3
17 1 -3.0544 1.79112 14.7272 0.00829556 0.00379042 0.100988 3
30 1 -1.15427 3.38437 14.3477 0.00163408 0.00152456 0.104603 3
41 1 -2.52265 1.53288 16.0386 0.00812558 -0.0038534 0.104919 3
47 1 -0.705835 3.09728 15.6291 -0.00216631 0.00137705 0.0997281 3
1 1 3.53138 0.661029 13.9692 -0.00812502 0.000452727 0.0995718 3
14 1 3.0288 0.83407 12.6381 -0.00425771 -0.000473904 0.104003 3
31 1 1.14563 2.22149 11.7829 -0.00210982 -0.000143149 0.0974377 3
49 1 0.687755 1.11086 10.9499 -0.000325749 -0.00102163 0.0916668 3
53 1 2.30984 2.65562 13.8764 -0.00233679 -0.00218348 0.095745 3
55 1 2.30205 2.06713 12.6047 -0.00158935 -0.00168135 0.102595 3
13 1 3.02074 1.78776 14.74 -0.00825339 0.00267481 0.100552 3
29 1 1.17234 3.38545 14.339 -0.0012887 0.00376518 0.0976223 3
37 1 2.54146 1.53742 16.0329 -0.00497372 -0.00289313 0.104059 3
45 1 0.711409 3.09978 15.6614 -0.00142264 0.00292042 0.104738 3
11 1 -0.00564106 -3.05141 16.3071 -0.000915375 -0.00650894 0.101926 3
34 1 -1.14945 -2.26404 16.739 0.000202069 -0.00061073 0.107186 3
48 1 -0.690684 -1.15193 17.4607 0.000178329 0.00115585 0.103046 3
33 1 1.13817 -2.27836 16.7559 0.00693211 0.000190215 0.105072 3
46 1 0.68956 -1.14183 17.4714 -0.00292144 -0.00172675 0.104784 3
6 1 -0.687235 1.40093 17.5147 0.000471573 -0.00325105 0.10422 3
23 1 -1.36481 2.21766 16.5586 0.00450105 -0.0011887 0.103722 3
24 1 -1.37278 0.130662 17.4457 0.00703204 0.000991557 0.103724 3
43 1 -2.5324 0.240026 16.5986 0.00599618 -0.000842621 0.103548 3
5 1 0.698384 1.4072 17.5188 -0.00439374 0.00343563 0.10796 3
21 1 1.42557 2.24425 16.5996 -0.001236 -0.000338024 0.104256 3
22 1 1.34609 0.140831 17.4456 -0.000727502 -0.000360059 0.103149 3
39 1 2.52858 0.245555 16.5879 -0.00704406 -0.002236 0.103067 3
