ITEM: TIMESTEP
18600
ITEM: NUMBER OF ATOMS
60
ITEM: BOX BOUNDS pp pp pp
-1.4715758017245314e+01 1.5057610017245315e+01
-1.2710055654020760e+01 1.2664508654020761e+01
-5.0001035148846022e+01 1.0000103514884636e+02
ITEM: ATOMS id type x y z vx vy vz c_coord
8 1 -0.388438 -1.19466 20.3116 0.0171492 -0.011254 0.0197004 3
28 1 -1.42127 -2.11192 20.8535 0.00255361 -0.0264188 0.0312072 3
44 1 -2.55133 -1.27818 21.4448 -0.00288274 0.00327085 0.0487176 3
52 1 -0.576588 -3.11743 21.2968 0.0234897 -0.00183555 0.0592887 3
7 1 0.986323 -1.48903 20.5557 -0.0385697 -0.00267626 -0.00299972 3
25 1 1.86348 -0.299572 20.6907 0.00763303 -0.00428094 -0.00771729 3
26 1 1.69992 -2.70674 20.2685 0.0172724 -0.0191872 0.0655746 3
38 1 3.05067 -0.541665 19.8539 0.0084741 -0.0113254 0.0207516 3
40 1 3.05516 -1.98147 20.419 0.0162477 -0.0173266 0.0467293 3
50 1 0.888533 -3.53757 21.0928 0.00372913 0.0161233 0.019824 3
16 1 3.35747 -2.08721 21.7643 0.0267034 0.0201438 0.0325439 3
42 1 -2.43617 0.0699015 20.9486 -0.023404 -0.0164552 0.0254373 3
27 1 -1.11289 0.0778875 20.5138 0.0101751 0.00107584 0.0234502 3
51 1 -0.328776 0.996073 21.1818 -0.0105013 -5.14949e-05 0.0244117 3
32 1 -0.624065 2.27371 20.9196 0.0160801 0.00143023 0.0367908 3
18 1 -2.62656 1.21305 21.7532 -0.00698591 -0.0126991 0.0702857 3
56 1 -1.84603 2.27014 21.6928 0.00525129 0.020031 0.0568071 3
10 1 0.652522 3.02563 21.2593 0.012618 0.00684956 0.0284542 3
49 1 1.12258 0.865617 20.8318 -0.0103031 0.014235 -0.00688227 3
31 1 1.5858 2.16529 20.4462 -0.0334022 -0.00463121 0.0326542 3
14 1 3.76469 0.508379 20.4772 0.0031593 -0.0129366 0.0428663 3
55 1 3.03973 1.88965 20.7451 -0.00805082 0.0036659 0.0555135 3
1 1 4.22532 0.308267 21.7926 0.0124851 0.0124402 0.0485648 3
53 1 3.15341 2.35909 22.1717 0.00373192 0.00106214 0.0437957 3
20 1 -2.68165 -1.57472 22.8746 0.0217412 0.00873109 0.0360778 3
36 1 -0.774555 -3.18342 22.7617 -0.0316321 0.0282012 0.0440586 3
4 1 -3.12886 -0.44667 23.9305 -0.0267423 0.0291993 0.0439648 3
60 1 -2.21197 -2.74149 23.6318 -0.0123913 -0.0353292 0.0386324 4
19 1 -2.27249 -0.614675 25.0303 0.0235122 0.0189618 0.0670516 3
58 1 -1.79918 -2.05737 24.8349 -0.00208841 -0.0303553 0.029206 3
34 1 -0.467589 -2.39358 25.2312 0.0132603 -0.00499186 0.0704143 3
35 1 1.32745 -3.44176 22.5729 0.00910033 -0.00448158 0.0297994 3
2 1 3.65744 -0.894162 22.4956 -0.0211284 0.0255223 0.0309309 3
59 1 2.79338 -3.23251 22.8707 0.00340238 0.0147169 0.0347591 4
12 1 0.369946 -3.41702 23.5085 0.0119602 0.00895032 0.0203674 3
48 1 0.583061 -1.25308 25.716 0.00715013 0.035001 0.0481384 3
11 1 0.880216 -3.1198 24.9344 0.00495661 0.0025427 0.0493366 3
15 1 2.78493 -0.787262 23.6721 -0.0169292 -0.000938566 0.0347457 3
57 1 3.11565 -2.32526 24.0428 -0.0109375 -0.00340211 0.0222785 3
46 1 1.95326 -1.45854 25.8084 0.0220682 -0.00894334 0.060107 3
33 1 2.10902 -2.77647 25.5867 0.000759025 -0.00804108 0.0298655 3
22 1 3.06886 -0.522204 25.6627 0.0362793 0.00682921 0.0491933 3
54 1 -2.17029 2.69243 23.1321 -0.0141415 -0.0163861 0.0367146 3
3 1 -3.34697 0.671247 23.0442 0.016751 0.0303504 0.0397979 3
30 1 -0.735412 2.91193 23.6098 -0.00637983 0.00821257 0.0522633 3
17 1 -3.51588 2.04903 23.468 0.0110046 0.00170765 0.0326091 3
47 1 -0.889146 3.78822 24.7538 -0.00888027 -0.00480968 0.0427102 2
43 1 -1.52666 0.0499013 26.1878 0.0340069 -0.0138516 0.0718941 3
41 1 -1.15624 1.59993 26.9565 0.0165069 0.00387204 0.0878992 2
23 1 -0.659896 2.42642 25.9258 -0.0143131 0.0247367 0.0448135 2
24 1 -0.170008 0.187274 25.7703 0.00415987 -0.00153243 0.0346035 3
9 1 0.523598 2.67937 22.6153 -0.0296216 0.0134514 0.0610734 3
29 1 2.00098 2.62316 22.8624 0.000494986 -0.00455069 0.0807039 3
13 1 4.30691 1.41925 22.7997 0.0128745 -0.00420045 0.0362896 4
39 1 3.14277 0.140133 24.5467 -0.0295701 -0.00212212 0.0413244 3
45 1 2.14567 3.32158 24.3097 0.00634102 -0.00137024 0.0152144 3
37 1 3.792 1.36177 24.3168 0.0269736 -0.0424426 0.0636984 3
6 1 0.629706 1.4651 26.0634 0.0256635 0.00842304 0.0685474 3
21 1 2.63636 2.40926 25.3678 0.0110179 -0.00500826 0.0338964 2
5 1 2.05654 1.89471 26.4698 0.0211749 -0.00364552 0.0296157 3
