ITEM: TIMESTEP
34100
ITEM: NUMBER OF ATOMS
168
ITEM: BOX BOUNDS pp pp pp
-1.4715758017245314e+01 1.5057610017245315e+01
-1.2710055654020760e+01 1.2664508654020761e+01
-5.0001035148846022e+01 1.0000103514884636e+02
ITEM: ATOMS id type x y z vx vy vz c_coord
92 1 -10.8378 -9.23532 19.7338 -0.00378252 -0.0267935 -0.0102988 3
93 1 -10.7628 -6.80832 20.08 0.0103331 -0.0151078 -0.00112495 3
103 1 -9.36234 -9.1293 19.7087 -0.0112818 0.00393827 -0.0287773 3
104 1 -8.52046 -8.0092 19.5461 -0.00265336 0.00167482 -0.0507129 3
105 1 -9.21752 -6.78759 20.004 0.000699077 -0.00384083 -0.0116939 3
122 1 -7.00975 -7.79031 19.8997 -0.00449846 -0.000742037 -0.0215519 3
132 1 -6.44088 -9.12614 20.2991 -0.0208237 -0.00342276 -0.00508208 3
143 1 -4.92868 -9.12447 20.1012 0.00122859 0.031736 -0.0226003 3
172 1 -2.34939 -9.10624 20.1942 -0.017336 -0.0105174 0.0154187 3
183 1 -0.963285 -9.29253 20.5535 -0.0122097 0.00605616 0.00412537 3
162 1 -2.91408 -7.91517 20.7682 0.00545446 -0.0160055 0.00220751 3
144 1 -4.33199 -7.88107 20.5018 -0.00325061 0.00801279 -0.00621082 3
133 1 -6.43614 -6.5817 20.6919 -0.0102355 0.0299079 -0.0233771 3
145 1 -4.97068 -6.75341 21.1511 0.00312731 0.0215605 -0.00318824 3
173 1 -2.35024 -6.85108 21.6064 0.00103999 -0.00796233 0.00459523 3
184 1 -0.25531 -7.99706 21.1428 0.0153353 -0.0298805 -0.00431875 3
185 1 -0.991709 -6.84032 21.9476 -0.0094783 -0.00620106 -0.00233385 3
212 1 2.01355 -9.2806 20.3443 0.0191679 -0.0263644 -0.0100924 3
223 1 3.3476 -9.23666 20.3006 0.0080686 -0.022495 0.00261408 3
224 1 4.13882 -8.2938 20.7354 0.00584682 -0.00403959 -0.0382951 3
242 1 5.56195 -8.13994 21.0664 -0.00627478 0.0119766 -0.0203034 3
252 1 6.24516 -9.29729 20.5608 0.00644987 0.00573146 0.00720853 3
202 1 1.34801 -8.12831 21.168 0.00283305 0.0120621 0.00687687 3
253 1 6.57831 -7.14624 21.4548 0.00559381 0.0246211 -0.0339131 3
225 1 3.77733 -6.96003 21.3831 -0.00540646 0.0114995 -0.0334163 3
213 1 2.42507 -7.12374 21.6685 0.0188898 0.0230055 -0.0253201 3
263 1 7.62343 -9.09296 20.3561 0.00934864 0.0258225 -0.00938904 3
264 1 8.51259 -7.95266 20.0773 -0.00376294 -0.00724247 -0.0303496 3
282 1 9.89828 -8.05226 19.3441 0.000241446 -0.0147069 0.000252692 3
292 1 10.5953 -9.34287 19.4758 -0.023436 -0.0151498 0.00283542 3
293 1 10.449 -6.88966 19.8319 0.00811859 -0.00804742 -0.00267644 3
265 1 7.96929 -7.05715 21.0396 -0.000696766 0.0134345 -0.0517295 3
94 1 -10.8135 -4.34056 20.0383 0.00367492 0.00161393 -0.0164093 3
95 1 -10.8696 -1.89454 20.1768 -0.000565926 -0.00149282 0.0142647 3
106 1 -8.62168 -5.50338 20.4802 -0.014327 -0.000291914 -0.0210782 3
107 1 -9.46776 -4.31331 20.7619 0.0228818 0.00591637 -0.0249055 3
109 1 -9.62699 -1.73273 21.0002 -0.00646136 -0.0155472 -0.0038406 3
110 1 -8.7996 -0.576069 21.3125 0.0141757 -0.0114851 -0.0148186 3
108 1 -8.95144 -2.95066 21.1514 0.00268987 0.0042982 0.00643343 3
124 1 -7.66017 -2.97511 21.7243 0.0195469 0.0229484 -0.0107827 3
123 1 -7.15415 -5.27326 20.908 -0.0003464 0.00766506 -0.0508492 3
146 1 -4.5163 -5.59213 21.9378 0.011727 -0.0127161 -0.00920286 3
134 1 -6.75065 -4.12771 21.4755 -0.0206528 0.0250569 -0.0223837 3
226 1 4.79235 -5.63574 21.7581 -0.0109189 0.0152751 0.00444747 3
243 1 6.13028 -5.76298 21.6719 0.000453059 0.0189247 -0.0122686 3
283 1 9.88915 -5.56114 20.286 -0.0141766 0.0245659 -0.0317834 3
284 1 9.9427 -2.90683 20.5007 -0.0109848 0.00477782 0.00614753 3
285 1 9.94138 -0.516535 20.5861 0.00900016 0.0155927 0.00445107 3
294 1 10.5032 -4.28596 20.2708 0.00171511 0.0355473 -0.0118436 3
295 1 10.5562 -1.7398 20.0588 -0.0151841 0.0072682 -0.00663965 3
268 1 9.16648 -3.21637 21.6466 -0.0122133 0.000511894 -0.0188217 3
270 1 9.2193 -0.779495 21.6465 0.0154514 0.00183503 -0.0128205 3
266 1 8.55637 -5.67223 20.7705 -0.000456462 0.00845866 -0.0305547 3
267 1 8.29373 -4.50567 21.5864 -0.00321855 0.0133958 -0.0405916 3
96 1 -10.9846 0.625355 20.5354 0.00294488 -0.0137972 -0.00104746 3
97 1 -10.9149 3.09591 20.395 0.0125429 0.00977126 -0.00824254 3
98 1 -10.7926 5.40157 20.0912 -0.0201135 0.00120269 -0.0111075 3
111 1 -9.6441 0.599892 21.298 -0.000475338 -0.0103094 0.00726223 3
113 1 -9.57075 3.06317 20.9646 0.0225028 -0.00508517 0.0288687 3
115 1 -9.29099 5.2868 20.3946 0.0152922 0.0134617 -0.00787092 3
112 1 -8.90231 1.87775 21.3431 0.0175636 -0.0261662 0.0123256 3
114 1 -8.84797 4.18187 21.2613 0.0265076 0.00675478 -0.0186249 3
126 1 -7.5557 1.74652 21.7077 0.00524389 0.0182116 -0.0139624 3
127 1 -7.39102 4.26937 21.6585 -0.00292087 0.0134499 -0.0381245 3
138 1 -6.60929 5.42655 21.6093 0.0108404 -0.00517289 -0.0373716 3
155 1 -5.18331 5.54771 21.7125 0.0148115 -0.0118954 -0.0107466 3
258 1 6.56011 5.6258 21.4144 0.0037594 0.00188716 -0.0342365 3
286 1 9.87555 1.83288 20.6136 0.012891 0.0124354 -0.00856468 3
287 1 9.78888 4.1283 20.3616 -0.0109706 0.0159692 -0.00909328 3
296 1 10.4703 0.796686 20.1782 -0.00201274 -0.00266236 0.00117754 3
297 1 10.5276 2.93673 20.1106 -0.0143065 0.0183683 -0.0167883 3
298 1 10.4597 5.42355 19.7988 -0.0012728 -0.00535768 -0.0312151 3
274 1 8.51335 4.13722 20.9157 -0.0330744 0.0152568 -0.0246601 3
275 1 7.63451 5.36619 20.5297 -0.0156621 0.00239555 -0.040789 3
272 1 8.73159 1.73755 21.5073 -0.00552486 -0.0013305 -0.0133863 3
273 1 8.02171 2.96972 21.7471 -0.0133922 -0.0144488 -0.0154844 3
99 1 -10.6581 7.91729 19.9767 0.0163508 0.013988 -0.0138057 3
116 1 -8.54858 6.48504 20.0796 0.00395691 0.00584968 -0.0469226 3
117 1 -9.2966 7.69904 19.57 -0.0088595 -0.00453648 -0.0464891 3
118 1 -8.73092 9.05585 19.9067 -0.00128436 0.00757308 -0.0107726 3
128 1 -7.2943 6.78405 20.86 -0.0149424 0.00455319 -0.052409 3
129 1 -7.36188 9.22095 20.118 -0.00519985 0.0155317 -0.00727409 3
139 1 -6.59324 7.92577 20.2688 0.010129 0.0148028 -0.0317341 3
158 1 -4.45008 9.21136 20.4687 0.0188985 -0.0172575 0.00982401 3
169 1 -2.86737 9.27238 20.5941 -0.00327497 -0.00984673 0.00612948 3
198 1 -0.137686 9.26213 20.5387 0.00524729 0.00312552 -0.0281594 3
197 1 -0.847831 8.20475 21.0938 0.00642216 0.00715879 0.00854975 3
179 1 -2.14259 8.04413 21.1026 -0.0084348 0.006317 -0.017202 3
157 1 -5.15089 8.07983 20.5952 -0.0118009 0.00912804 0.0180077 3
156 1 -4.59289 6.79399 21.2526 0.0253855 -0.00262375 -0.0174565 3
196 1 -0.193049 6.85262 21.599 -0.0197175 0.00248156 -0.0141807 2
168 1 -3.23163 6.92541 21.8331 0.0213836 -0.0222498 -0.00444097 3
209 1 1.19393 9.29771 20.6587 0.0126348 0.000267912 0.00475032 3
238 1 4.02637 9.33605 20.7461 -0.00305287 0.00819422 -0.00351422 3
249 1 5.57674 9.23375 20.4391 -0.0023057 -0.0046172 -0.0114253 3
259 1 6.54299 8.1924 20.7176 0.00491344 0.00813804 -0.0283045 3
237 1 3.37309 8.24542 21.2577 0.00331864 -0.0036226 -0.0141519 3
219 1 1.92272 8.19135 21.1539 -0.0106322 0.0109334 -0.00348055 3
248 1 5.76622 7.10694 21.3501 -0.00141221 -0.00232612 -0.0296259 3
236 1 4.35147 7.2011 21.8464 0.0117003 -0.00502626 -0.0122377 3
208 1 1.2501 6.96151 21.7518 0.00979232 0.0252269 -0.0354332 2
277 1 7.78014 7.84575 19.8537 -0.00371402 -0.0174621 -0.0171006 3
278 1 8.41892 9.07914 19.5909 0.00376616 0.0100058 -0.00611699 3
288 1 9.67502 6.51792 19.39 0.0144686 0.024412 -0.0207716 3
289 1 9.84202 9.091 19.6803 -0.000968929 0.00318172 0.0138325 3
299 1 10.565 7.85329 19.5662 -0.0114062 0.00521728 0.00617895 3
276 1 8.20293 6.43321 19.6389 -0.00151682 0.00782707 -0.0275231 3
125 1 -7.51277 -0.581579 22.0513 0.00559414 0.0337294 -0.0144257 3
135 1 -6.94536 -1.90906 22.3133 0.0055075 -0.00312447 -0.0213338 3
163 1 -3.00105 -5.83619 22.2615 -0.011609 -0.0168386 -0.00768832 3
147 1 -5.44052 -4.51635 22.174 0.00364103 0.015638 -0.0146656 3
148 1 -5.20318 -3.57716 23.4032 0.00765969 0.012997 -0.0162489 3
149 1 -5.96279 -2.22663 23.4456 0.0231109 0.0166682 -0.0083215 3
150 1 -5.87248 -0.96158 24.1567 0.0104728 -0.0081029 0.00322473 2
164 1 -4.42432 -4.23288 24.4785 -0.0329156 0.0279275 -0.0179134 2
174 1 -2.76212 -4.97666 23.7384 -0.0193991 -0.0145685 0.00408566 2
187 1 -1.38416 -4.81409 23.8661 -0.0238751 -0.0203421 -0.0127635 2
186 1 -0.744487 -5.94385 22.8766 -0.0357703 -0.0289785 -0.0190565 2
203 1 2.47886 -5.64383 22.5381 0.0122459 -0.00327159 -0.0235399 2
254 1 7.06045 -4.41839 21.9948 -0.0065942 0.0140476 -0.0255812 3
244 1 6.73072 -3.16968 22.7522 -0.0406891 0.0188387 -0.0288548 3
227 1 4.64196 -4.33752 22.6671 -0.0272318 0.0207914 -0.00872628 3
228 1 5.56864 -3.28721 23.4074 0.00090324 -0.00484526 -0.0150494 3
229 1 6.01019 -2.26084 24.5983 -0.0297671 0.0183261 -0.0335907 2
214 1 3.15133 -4.38383 22.2812 -0.0227194 0.0357487 -0.0141634 2
230 1 6.62765 -1.12331 25.1916 -0.030596 -0.0142037 -0.00907542 3
231 1 6.42571 -0.521472 26.5676 -0.0234163 0.0245113 0.00532657 2
232 1 6.14808 -0.0186015 27.6616 0.00594133 0.0327192 -0.000330968 1
245 1 7.39129 -0.775316 23.9046 -0.0341177 0.00476177 -0.0153097 3
255 1 7.5519 -1.95798 23.0578 -0.0195385 -0.0150953 -0.0154868 3
269 1 8.73286 -2.02626 22.0832 0.0107158 0.00207213 -0.00671897 3
136 1 -6.91818 0.62168 22.4401 0.0201553 0.0186869 0.00859546 3
137 1 -6.94461 2.88074 22.3591 0.0312408 -0.0134812 -0.0128572 3
151 1 -6.23215 0.4721 23.7078 0.00788539 0.0199898 -0.000611566 3
153 1 -5.82663 2.92888 23.2241 0.0183483 0.010465 -0.0239407 3
154 1 -5.02078 4.36795 22.7845 0.00637579 0.0188078 -0.0334822 3
152 1 -5.79922 1.80029 24.2202 0.0321398 0.0249545 -0.00534949 2
167 1 -4.36859 5.1203 23.6193 0.0159941 0.0154051 -0.0143848 3
177 1 -3.85303 4.18011 24.8277 -0.023199 -0.00105308 -0.00935476 2
193 1 -2.58505 4.88619 25.0423 -0.0232018 -0.0168023 -0.0335004 2
247 1 6.30754 4.75643 22.5014 -0.0186589 -0.0038913 -0.0198406 3
234 1 5.60305 5.59387 23.4774 0.013289 0.00790647 -0.0268486 3
233 1 5.99459 5.40365 24.7448 0.0136342 -0.00959883 -0.02705 2
257 1 6.96238 3.32334 22.7548 -0.0391301 0.00408193 -0.0134117 3
217 1 5.32376 5.98161 25.8433 0.0185767 -0.0144562 -0.0032295 2
246 1 6.95457 2.07312 23.4294 -0.0289175 0.002696 -0.00010614 2
256 1 7.72609 0.60246 23.4768 -0.0302829 -0.00178411 -0.0115161 3
271 1 8.51745 0.459491 22.1955 6.30668e-05 -0.0126672 0.00913982 3
194 1 -2.96403 6.37818 25.1806 -0.0182518 -0.0117337 -0.00161476 2
178 1 -3.54233 6.4103 23.1111 0.0175573 -0.0151162 -0.00428986 3
195 1 -3.08902 7.42671 24.1207 -0.00763206 -0.000768741 0.000216139 2
235 1 4.7082 6.74765 23.2008 -0.00730713 -0.00883615 -0.00715473 3
207 1 4.7901 7.50727 25.4754 0.0189076 0.00247011 0.000122998 2
218 1 5.12136 8.03016 24.1715 0.0318164 0.0103517 0.0393944 2
204 1 4.08783 -2.26976 31.786 -0.0105353 -0.00410859 0.0310611 3
215 1 5.70422 -1.72022 32.2726 0.0243695 0.0519181 0.000485726 3
188 1 4.74846 -2.48072 32.9562 0.026033 -0.0289804 0.0174394 3
205 1 6.09267 -0.299089 32.6512 0.0435336 -0.0268555 0.0274036 3
216 1 5.0417 0.380897 32.042 0.00991871 -0.0103725 0.0298569 3
206 1 3.83582 1.26295 32.3927 0.0249527 0.00175874 0.0147787 2
192 1 4.30326 1.06324 33.857 0.0359896 -0.0404725 0.0252616 2
190 1 5.74751 -0.521736 34.2266 -0.00569624 0.000409456 0.00843992 3
189 1 5.21248 -2.05122 34.375 0.0125591 0.00154898 0.00086845 3
165 1 5.293 -1.19516 36.3258 0.0287116 0.0293087 0.0349417 2
175 1 5.02272 -2.52327 35.6895 -0.00317687 0.000956285 0.0132737 2
176 1 4.48875 0.153947 36.3951 0.0303417 0.0272345 0.0442281 3
166 1 2.79881 0.454919 36.4424 0.0416055 0.041711 0.0314795 2
191 1 4.86615 0.257468 34.8398 0.00968389 -0.0124095 -0.00692921 3
