ITEM: TIMESTEP
44100
ITEM: NUMBER OF ATOMS
168
ITEM: BOX BOUNDS pp pp pp
-1.4715758017245314e+01 1.5057610017245315e+01
-1.2710055654020760e+01 1.2664508654020761e+01
-5.0001035148846022e+01 1.0000103514884636e+02
ITEM: ATOMS id type x y z vx vy vz c_coord
92 1 -10.799 -9.25542 19.8153 0.00795815 -0.00584923 -0.0369092 3
93 1 -10.8093 -6.8023 20.2287 0.00418129 -0.00592741 0.0113661 3
103 1 -9.4074 -9.33073 19.5518 0.0227443 0.0239781 0.0126206 3
104 1 -8.85655 -7.97776 20.0303 -0.00601872 -0.00670277 0.0028549 3
105 1 -9.48064 -6.83095 20.1537 -0.01167 -0.00794514 0.00131051 3
122 1 -7.54356 -8.05763 19.917 -0.0147235 0.000241126 0.00230763 3
132 1 -6.46788 -9.25441 19.6859 -0.0117045 -0.00120105 0.0131644 3
143 1 -5.08513 -9.16812 19.6123 0.015422 0.0141611 0.0171434 3
172 1 -2.24062 -9.30219 19.9114 -0.00711559 0.0162909 -0.0142273 3
183 1 -0.944385 -9.12994 20.0615 0.00416347 -0.0120429 0.00994132 3
162 1 -2.92895 -7.80151 19.9287 0.00298546 0.0158924 -0.0147842 3
144 1 -4.35759 -7.92031 19.6825 0.00190443 -0.000168269 -0.0125 3
133 1 -6.64324 -6.87975 19.7365 -0.0105044 -0.00738386 0.0179873 3
145 1 -5.15052 -6.792 19.9739 0.0139562 0.0144914 0.00135844 3
173 1 -2.53523 -6.71009 20.7387 -0.00109849 0.00932249 -3.68421e-05 3
184 1 -0.268196 -8.17314 20.5188 0.00131169 0.00678559 0.0176399 3
185 1 -1.26692 -7.39277 21.3515 -0.00405 -0.0131296 -0.018795 3
212 1 1.97622 -9.19444 19.9126 -0.00706925 0.022982 -0.00565342 3
223 1 3.40617 -9.26398 19.643 0.0294497 -0.000203642 -0.00344647 3
224 1 3.89401 -8.16858 19.6782 0.00671768 -0.00508234 0.00500828 3
242 1 5.32969 -8.15208 20.0885 -0.00179914 0.00495834 -0.000267827 3
252 1 6.28507 -9.15884 20.0824 0.0274318 0.00942142 0.000719401 3
202 1 1.19242 -8.19784 20.5596 0.00320967 -0.00908487 0.0168031 3
225 1 3.0933 -6.83715 19.767 0.0048596 -0.00303805 -0.013656 3
213 1 1.68284 -6.91407 20.323 -0.00586612 0.0178256 -0.0256508 3
253 1 6.05081 -6.82708 20.0245 -0.00297641 -0.0081672 0.00971255 3
265 1 7.54047 -6.88027 20.3973 0.019219 -0.0267441 0.0386429 3
263 1 7.63709 -9.19482 20.1301 -0.00978788 0.00183139 0.0152396 3
264 1 8.42718 -7.93132 19.9916 -0.00997421 -0.0193957 0.00404675 3
282 1 9.81808 -8.18191 19.7626 -0.00906393 -0.00102754 0.014982 3
292 1 10.5437 -9.40249 19.7133 -0.00427582 0.0228491 0.0102126 3
293 1 10.4197 -6.91391 20.0504 -0.0010205 0.00625199 0.0178082 3
94 1 -10.9231 -4.33425 19.7912 -0.0106743 -0.00549516 0.0197355 3
95 1 -10.9468 -1.84323 19.8776 0.0208848 -0.00312372 0.000992717 3
106 1 -8.71663 -5.62048 19.698 0.00897505 -0.0291146 0.00939144 3
107 1 -9.47636 -4.42602 19.8499 0.00174834 -0.0151486 -0.000939475 3
109 1 -9.4751 -1.81287 19.8173 0.00874645 -0.0170858 0.00222644 3
110 1 -8.77987 -0.475346 20.092 0.0228921 -0.0229258 -0.0205574 3
108 1 -8.80571 -3.08396 19.8661 0.0116143 0.00680393 0.0156727 3
125 1 -7.3351 -0.866932 20.1937 0.011253 -0.0279576 -0.0340893 3
123 1 -7.3093 -5.64758 19.7818 0.0249732 -0.00781473 0.000993752 3
124 1 -7.3702 -3.19716 20.3567 -5.70809e-05 0.0164698 -0.0170032 3
146 1 -4.68102 -5.72578 20.8211 0.0234514 0.0252744 0.000588088 3
134 1 -6.5254 -4.29274 19.9125 0.0111406 -0.0117672 -0.00373986 3
147 1 -5.41478 -4.3769 20.6985 0.0199717 0.019218 0.0101495 2
135 1 -6.67012 -1.95296 20.8387 0.00755441 -0.0144684 -0.00378007 2
163 1 -3.38688 -5.91552 21.6967 0.00628476 -0.0163755 -0.021231 3
149 1 -5.1927 -1.04326 21.4599 0.0272556 0.0175019 -0.00932942 1
150 1 -5.00756 -1.23245 20.106 0.00530056 -0.0202596 0.0177815 1
226 1 3.87007 -5.71275 20.1963 0.0233905 0.00755207 -0.0140645 3
243 1 5.26947 -5.65695 19.9846 0.000717462 -0.0175435 0.00193972 3
254 1 6.0279 -4.37642 19.8369 -0.00178016 0.00608641 0.00646665 3
203 1 1.07572 -5.9277 21.314 0.00592932 0.00309547 0.00899861 2
269 1 7.56856 -1.8647 20.2311 0.0120139 -0.0206788 -0.0105517 3
267 1 7.43272 -4.46069 20.3524 0.0296318 -0.020345 0.0260715 3
244 1 5.19047 -3.24363 19.9248 -0.0154247 -0.00952401 -0.0672615 3
227 1 3.26563 -4.45507 21.0266 -0.0100131 0.0112454 -0.0518191 3
214 1 1.69315 -4.60006 21.2948 -0.0291003 -0.0236105 -0.0126402 2
255 1 6.05854 -2.00044 20.2941 -0.00490036 -0.0426644 -0.051384 3
228 1 3.97466 -3.29825 20.7496 -0.0053642 -0.027237 -0.028873 3
245 1 5.55575 -0.876374 20.96 -0.00165631 -0.0320348 -0.0548848 2
283 1 9.74508 -5.78034 20.6738 0.00646359 0.0189186 -0.0198398 3
284 1 9.84178 -3.33824 20.2176 0.0189954 -0.0174121 -0.0106697 3
285 1 9.71179 -0.841122 19.98 0.000710462 -0.00891258 -0.0304664 3
294 1 10.4337 -4.60906 20.2638 0.0116519 -0.0319011 0.00266175 3
295 1 10.5093 -2.11612 19.9846 0.00437251 -0.0160941 -0.0143327 3
268 1 8.25683 -3.2565 20.3916 0.00807232 -0.000566809 0.00906677 3
270 1 8.37771 -0.701149 20.607 -0.00263657 -0.00777787 -0.0237421 3
266 1 8.21632 -5.66798 20.7478 0.030259 -0.00709474 0.0092708 3
96 1 -10.8955 0.591118 20.0056 0.0231093 0.0188914 0.00274525 3
97 1 -10.8283 3.01963 19.6824 -0.00952921 0.0075893 0.0300121 3
98 1 -10.9569 5.60914 19.9199 0.00583177 -0.0186627 0.0145715 3
111 1 -9.42089 0.696319 19.999 0.00344729 -0.00642748 -0.0386474 3
113 1 -9.55961 3.09229 18.9871 0.000579774 0.0286003 0.0102135 3
115 1 -9.49696 5.69381 19.3976 0.00880977 0.0176396 0.00927474 3
112 1 -8.79437 2.00817 19.5614 0.000785271 -0.00729458 -0.0311191 3
114 1 -8.90257 4.50052 19.1533 -0.0147079 0.0115057 0.00712518 3
126 1 -7.35532 1.94261 19.5151 0.00847991 -0.0179485 -0.0336792 3
127 1 -7.55774 4.37493 19.5557 -0.012978 -0.00716809 -0.00597793 3
138 1 -6.86501 5.8677 19.597 -0.00308122 -0.0124307 -0.0109524 3
155 1 -5.59292 5.88553 20.204 0.00145991 -0.000248365 -0.0184624 3
137 1 -6.63734 3.29584 19.4714 -0.0102997 -0.0172488 -0.0243981 3
154 1 -4.93894 4.53422 20.4845 -0.0296919 -0.00642207 -0.0222039 3
153 1 -5.4185 3.16569 20.259 0.00297265 -0.0203494 -0.033887 3
136 1 -6.80365 0.622523 19.7567 0.0316865 -0.0199269 -0.0589389 3
151 1 -5.55179 0.596627 19.7843 0.0207882 -0.0104547 -0.0508855 2
152 1 -4.77983 1.79426 19.8029 0.0252141 -0.0113561 -0.0291174 2
167 1 -4.11392 5.01471 21.6681 0.00392166 -0.010352 -0.0140092 3
178 1 -3.15238 6.07944 21.7314 0.0158167 -0.0116275 -0.0383802 3
258 1 6.41326 5.49867 19.7265 0.0123296 -0.0230775 0.00255264 3
247 1 5.73213 4.316 20.2265 -0.0242932 -0.02927 -0.0244204 3
257 1 6.23773 2.96657 20.2012 0.012212 -0.0164147 -0.00518593 3
246 1 5.44158 1.74709 20.6239 0.00983723 -0.00245626 -0.0269972 2
256 1 6.17097 0.512948 20.6698 0.00421103 0.00438646 -0.0343578 3
234 1 5.52467 4.65745 21.6175 -0.026157 -0.0279578 -0.0163365 3
235 1 4.86881 6.12742 21.8696 -0.0157022 -0.0101013 -0.00721065 3
273 1 7.67418 3.21332 20.1129 0.0072923 0.0113663 0.00784644 3
275 1 7.7687 5.66733 19.94 -0.000260085 -2.97457e-05 0.0144589 3
286 1 9.73175 1.85052 20.1099 -0.0105096 -0.00944222 0.0013846 3
287 1 9.79587 4.38362 20.1788 -0.0122868 0.017042 -7.81212e-05 3
296 1 10.4006 0.473348 19.9703 -0.0137534 0.0144857 -0.040137 3
297 1 10.5291 2.98917 20.3107 -0.00496375 0.0115942 0.0053808 3
298 1 10.5829 5.55054 20.0515 0.0186163 0.0032357 0.00403845 3
274 1 8.4616 4.36275 20.0575 -0.00376954 -0.0137582 0.000716172 3
272 1 8.1787 1.86888 20.3573 -0.00828837 0.00401781 -0.021615 3
271 1 7.74205 0.577198 20.4046 -0.0168974 0.00788476 -0.037219 3
99 1 -10.7841 7.95358 19.9899 -0.00590728 0.00343295 -0.0108285 3
116 1 -8.71094 6.82939 19.6766 0.0063848 0.0233506 -0.00510961 3
117 1 -9.34929 8.03801 20.1838 0.018693 0.0090825 -0.0215594 3
118 1 -8.52539 9.25309 20.0642 -0.0181656 0.0205542 -9.16052e-05 3
128 1 -7.3386 6.92272 19.201 0.0128924 0.00379891 0.0178704 3
129 1 -7.2567 9.16326 19.6926 -0.00580642 -0.00458022 0.0137967 3
139 1 -6.52227 7.97338 19.3789 -0.0090987 -0.00977698 0.000259905 3
158 1 -4.52024 9.28397 19.5185 0.000125453 -0.0138222 -0.00230845 3
169 1 -3.08973 9.24303 19.6281 -0.00814241 -0.00218228 -0.0135683 3
198 1 -0.210961 9.20745 20.2434 -0.00565765 0.014533 0.00256757 3
197 1 -0.927552 8.04374 20.62 -0.0115719 0.0125124 -0.0126484 3
179 1 -2.48304 8.15491 20.3524 -0.00445799 -0.0191184 -0.018859 3
157 1 -5.08569 8.08029 19.38 -0.016857 0.0119753 0.0245156 3
156 1 -4.49049 6.82401 19.8318 -0.0104514 0.0140718 -0.0258549 3
168 1 -3.17883 6.918 20.63 0.0046704 -0.0118011 -0.0274152 3
196 1 0.0667843 7.08146 20.972 -0.00394832 -0.0138143 0.00901468 2
209 1 1.26408 9.18912 20.1088 -0.00681928 0.0181777 -0.00422964 3
238 1 4.1241 9.09737 19.9315 -0.00954682 0.00655225 0.0124237 3
249 1 5.55498 9.11983 19.9898 -0.017511 0.0148872 0.0215687 3
259 1 6.46806 7.96054 19.8978 -0.0166403 -0.01434 0.0191656 3
237 1 3.48615 7.98858 20.2942 0.0304892 -0.00758193 0.00137779 3
219 1 2.18641 8.01301 20.3697 0.0119708 0.00922194 -0.0322493 3
248 1 5.81056 6.75147 19.9009 0.0054591 -0.00277515 -0.0354606 3
236 1 4.56309 6.85769 20.5805 0.01453 0.0146144 -0.025406 3
208 1 1.48645 6.69517 20.7036 -0.0181748 -0.0186919 0.00668773 2
277 1 7.77578 8.08723 19.7911 -0.0123253 -0.00335967 0.000989765 3
278 1 8.48682 9.32533 20.0556 0.00612679 -0.00138855 0.00984044 3
288 1 9.87948 6.87165 19.9077 0.0184046 0.0158218 -0.00732869 3
289 1 9.83774 9.25896 20.1134 0.0101367 0.00152231 0.0113259 3
299 1 10.5008 7.98588 19.9855 0.000111559 0.0145254 -0.0160628 3
276 1 8.52936 6.91068 19.8322 0.00477615 0.00062818 -0.00288356 3
186 1 -1.51164 -7.22844 22.6046 0.000548502 -0.0320825 -0.0436009 2
187 1 -1.76057 -6.52385 23.8395 -0.00464877 0.0139209 -0.0125604 2
148 1 -4.29224 -0.477005 22.9623 0.00962783 0.0182907 0.00849748 1
164 1 -4.1182 -0.890289 24.1674 -0.0211614 0.0345647 0.0190011 2
174 1 -2.9885 -5.81561 23.2045 0.013629 -0.0027063 -0.00132601 2
229 1 4.16437 -2.44586 22.1365 -0.0190975 -0.00300874 -0.0142002 2
230 1 3.65208 -1.97476 23.2586 -0.034424 -0.0639121 -0.00304648 2
231 1 3.3706 -1.65284 24.8369 -0.00286765 -0.0261007 -0.0070309 2
232 1 3.79485 -1.52416 26.1864 -0.0180201 0.0108103 -0.00875691 2
177 1 -4.34744 4.02212 22.9166 -0.0199379 0.0188789 -0.005563 2
193 1 -3.931 5.08792 23.907 0.0182266 -0.0172821 -0.0121283 2
194 1 -2.57092 5.70308 24.0305 -0.0150465 -0.00864642 -0.0256449 2
233 1 6.51738 4.37678 22.6746 0.00447769 0.00122869 -0.0194908 2
217 1 7.04825 5.10284 23.791 0.00725612 -0.00836346 -0.057533 2
195 1 -2.19423 6.57664 22.9672 -0.00429667 -0.00443304 -0.0272121 2
207 1 6.45077 6.47238 23.8934 0.00379906 -0.00165265 -0.0205323 2
218 1 5.46357 6.86461 22.8437 -0.00706046 -0.014551 -0.0200426 2
204 1 5.40772 -3.6986 33.2496 0.0140458 0.0205335 -0.0163031 3
215 1 6.74288 -2.72963 33.7295 -0.00888125 -0.0169422 0.0116634 3
188 1 6.45152 -4.00173 33.7381 0.00572244 0.00639324 0.0325874 2
216 1 6.27485 -0.208706 33.5553 0.00360588 -0.00930959 0.0194073 3
206 1 6.20804 1.32968 33.9845 0.0183803 -0.0414932 0.0199396 3
205 1 7.25126 -1.30576 34.2877 0.00719106 -0.0108612 0.0309681 4
190 1 7.48057 -0.643602 35.3837 0.0455281 -0.0360518 -0.00972338 3
189 1 7.25035 -1.92011 35.9639 0.0163573 -0.00533386 0.00870681 3
165 1 5.45772 -1.07044 37.1118 -0.0118692 0.0258037 -0.00348561 2
175 1 6.21901 -2.16236 36.7812 0.0253578 -0.000909412 0.0318097 2
192 1 7.19208 1.65728 35.1783 0.0055908 -0.00876082 0.00612896 2
176 1 5.92019 0.45437 36.9429 0.0286209 -0.0123996 0.0172306 3
166 1 5.32415 1.68666 37.4825 0.0485971 0.0251714 0.00457468 2
191 1 6.85465 0.470808 35.9364 0.011986 -0.00470245 0.00758602 3
