ITEM: TIMESTEP
23000
ITEM: NUMBER OF ATOMS
168
ITEM: BOX BOUNDS pp pp pp
-1.4715758017245314e+01 1.5057610017245315e+01
-1.2710055654020760e+01 1.2664508654020761e+01
-5.0001035148846022e+01 1.0000103514884636e+02
ITEM: ATOMS id type x y z vx vy vz c_coord
92 1 -10.8469 -9.22059 19.8521 -0.00225364 0.0013991 -0.00170429 3
93 1 -10.787 -6.79825 19.8438 0.000133956 -0.00805366 0.00614101 3
103 1 -9.42109 -9.24501 19.7401 -0.0113338 0.00938129 0.00525078 3
104 1 -8.67978 -7.94182 20.1859 -0.00483585 0.000199226 0.0272445 3
105 1 -9.39668 -6.64163 20.3432 -0.00361549 0.0182656 0.0347127 3
122 1 -7.64852 -8.14863 21.1937 0.00971601 -0.0179901 0.0353909 3
132 1 -6.86047 -9.38394 20.8803 0.00400765 -0.0100079 0.00884125 3
133 1 -7.06945 -6.97721 21.9397 0.00624064 -0.0171826 0.0237911 3
143 1 -5.44517 -9.5311 20.7888 -0.0137282 0.0134203 5.72202e-05 3
144 1 -4.93577 -8.77564 21.8489 0.000782795 -0.0323132 0.0159659 3
172 1 -2.59724 -9.56396 21.0011 0.00895112 0.0289079 -0.0111316 3
183 1 -1.09752 -9.49746 20.8029 0.0118044 0.00119654 -0.00137693 3
184 1 -0.320662 -9.08968 21.9478 -0.00806632 -0.0103881 -0.0234528 3
212 1 2.03674 -9.38902 20.7095 -0.0183051 0.0166783 -0.0208363 3
223 1 3.53154 -9.39684 20.6941 0.0150803 0.00415917 -0.0139339 3
224 1 4.3024 -8.81761 21.7681 -0.0191961 -0.00684922 -0.0117091 3
242 1 5.74117 -8.54492 21.7677 -0.0132034 -0.0135377 0.0144756 3
252 1 6.26099 -9.50941 20.9163 -0.0142858 -0.0177496 -0.00647303 3
202 1 1.18814 -9.02664 21.849 0.024327 0.00202284 0.00167192 3
263 1 7.69248 -9.2699 20.6243 0.018199 -0.0175886 0.0175535 3
265 1 8.06034 -7.09786 21.7223 -0.00706559 -0.00735265 0.040574 3
264 1 8.44958 -8.05495 20.7438 0.00599182 -0.0117942 0.0372157 3
282 1 9.705 -7.98478 19.8236 0.00169487 -0.00678495 0.0185726 3
292 1 10.4883 -9.20603 19.792 0.00226832 -0.0156288 0.00694699 3
293 1 10.4305 -6.7418 19.906 -0.000220005 -0.0171409 0.0140152 3
94 1 -10.9291 -4.28679 20.5095 -0.00995499 -0.00228237 0.0327689 3
95 1 -10.9742 -1.92219 20.6628 0.00703002 0.00403123 -0.004321 3
106 1 -8.99618 -5.56292 21.3072 0.0135102 0.00545785 0.0274099 3
107 1 -9.80699 -4.32831 21.4727 -0.0103123 0.0161054 0.0342084 3
108 1 -9.09526 -3.05029 21.8264 0.00348619 -0.0178848 0.00372277 3
109 1 -9.85443 -1.74417 21.6526 -0.00258155 -0.00572521 0.0160991 3
123 1 -7.61435 -5.74465 21.7948 0.0232829 -0.00248659 0.0284567 3
266 1 8.67861 -5.76155 21.8283 -0.00683393 0.0154558 0.0463531 3
283 1 9.84028 -5.68617 20.774 0.00802462 0.000879709 0.0298275 3
284 1 10.1009 -3.22346 21.6283 0.00291905 -0.000580431 0.0152155 3
285 1 10.3394 -0.807407 21.8588 0.00291795 -0.00548208 -0.00447163 3
294 1 10.5927 -4.44886 20.9151 -0.0109934 0.000560503 0.0383766 3
295 1 10.8826 -1.97136 21.2678 0.00757467 -0.0243356 -0.00678402 3
96 1 -10.9401 0.602003 20.4968 0.0109808 -0.00781728 -0.0107523 3
97 1 -11.0083 3.12789 20.6956 -0.00418807 -0.0118652 0.0191289 3
98 1 -10.747 5.57121 20.1447 -0.00816334 0.00760221 0.0158177 3
111 1 -9.83636 0.754882 21.6695 -0.011287 0.00368917 0.0210549 3
113 1 -9.90444 3.23083 21.6655 -0.0160415 -0.0103824 0.021436 3
114 1 -9.03211 4.50245 21.645 0.000427902 -0.00921557 0.0234017 3
115 1 -9.46285 5.7327 20.8977 -0.00366958 -0.00855256 0.0382856 3
275 1 8.13527 5.46781 21.9885 0.000625704 0.00490954 0.0160766 3
286 1 10.4144 1.70113 21.8634 0.00470479 -0.0100416 -0.00366686 3
287 1 10.3265 4.14911 21.5219 0.0145147 -0.0178779 0.0176452 3
296 1 10.9065 0.513868 21.164 -0.00557983 -0.00824432 -0.00874905 3
297 1 11.0413 2.91564 21.2111 0.00401026 0.00645028 -0.0106948 3
298 1 10.7894 5.42161 20.8 -0.00108991 -0.0114671 0.0296917 3
99 1 -10.7938 7.93001 19.7462 0.00187602 -0.000455038 -0.00342713 3
116 1 -8.73009 6.99647 20.8185 -0.00719844 -0.00155764 0.0356128 3
117 1 -9.25927 7.97703 19.7627 0.0193769 0.0136614 0.0141728 3
118 1 -8.50356 9.16912 19.8321 0.0117787 -0.00415339 0.0167905 3
128 1 -7.64084 7.25224 21.5076 0.0061496 -0.00628783 0.0293965 3
129 1 -7.16111 9.20742 20.4017 0.00177684 0.00840353 0.0142041 3
139 1 -6.61705 8.31649 21.3697 -0.00188031 0.0284161 0.0201505 3
157 1 -5.29358 8.69354 21.8722 -0.015947 0.030039 0.0283807 3
158 1 -4.42978 9.66775 21.0883 0.0180514 0.0113599 0.00700211 3
169 1 -3.06453 9.55205 21.1053 0.0170001 -0.00209855 0.000987049 3
198 1 -0.0298836 9.27733 20.8405 -0.0146651 -0.0209851 -0.0321566 3
197 1 -0.872104 8.65395 21.9376 -0.00689214 0.00125759 -0.0249248 3
209 1 1.32259 9.22671 20.8121 -0.00730382 -0.000982105 -0.0377765 3
238 1 4.23753 9.58601 21.0907 -0.00927767 -0.0157791 0.0035222 3
249 1 5.65724 9.50621 21.0273 0.000507924 -0.00842337 -0.00450178 3
259 1 6.46842 8.40488 21.6408 0.00933728 0.00298239 0.0139696 3
237 1 3.74675 8.50438 21.8291 -0.0106846 -0.021557 -0.012095 3
219 1 2.21679 8.39702 21.8952 -0.00677353 -0.0132499 -0.0103577 3
277 1 7.78541 8.07004 21.2823 0.0134777 0.0163747 0.0203717 3
276 1 8.63039 6.69449 21.5551 0.0110475 0.00611828 0.0227107 3
278 1 8.36042 9.03568 20.3774 -0.0126128 -0.00159991 0.0320288 3
288 1 9.87316 6.54091 20.7866 0.0130556 0.0147687 0.0326924 3
289 1 9.74089 8.98014 19.9939 0.0135513 0.00146703 0.0220277 3
299 1 10.4189 7.74556 20.0562 0.00936912 0.00678972 0.0224613 3
145 1 -5.74371 -7.62415 22.4206 0.0105003 -0.015311 0.0232032 3
162 1 -3.29423 -9.03959 22.1005 0.00988528 -0.00769302 -0.0257257 3
173 1 -2.49208 -8.08606 22.8449 0.0244471 0.00461476 0.00626726 3
185 1 -1.09354 -8.17093 22.8842 0.00676697 0.010076 -0.0090305 3
186 1 -0.234689 -7.01336 23.3421 0.0126112 0.00855794 -0.00751485 3
163 1 -3.35133 -6.71228 22.7264 -0.0171753 0.00683616 0.0117222 3
146 1 -4.92968 -6.51159 22.6869 0.0134209 -0.0112808 0.00742228 3
253 1 6.58481 -7.26961 22.0762 0.00238919 -0.00577015 0.0109774 3
225 1 3.54012 -7.81767 22.4821 0.00671512 -0.00234022 0.00543575 3
213 1 2.08002 -8.0611 22.6796 0.00770094 -0.00342694 -0.00338168 3
203 1 1.29117 -7.06347 23.4034 0.0115876 -0.0066467 0.0131267 3
226 1 4.45727 -6.62952 22.9172 0.00640933 -0.0201186 0.0183531 3
110 1 -9.03275 -0.458264 22.237 -0.00905943 -0.0019293 0.00675064 3
124 1 -7.54363 -3.11705 22.0473 -0.00969997 -0.00832811 0.0160424 3
125 1 -7.50265 -0.392327 22.4394 -0.0177823 -0.0147981 0.00158669 3
134 1 -6.66214 -4.54567 22.2355 0.0143049 -0.00866417 0.0210921 3
135 1 -6.73656 -1.7868 22.4387 0.00393139 -0.00826477 0.00427515 3
147 1 -5.40179 -4.98782 22.8642 0.0117583 0.0026712 0.0130474 3
148 1 -4.82175 -3.62754 23.1533 0.00154863 -0.00765026 0.0108358 3
149 1 -5.4008 -1.98225 22.8997 0.00802766 -0.00850989 0.0168376 3
150 1 -4.90688 -0.712172 23.2183 -0.0178851 -0.00666919 0.0181456 2
164 1 -3.31231 -4.07805 23.516 0.000482706 0.0111316 0.0113325 3
174 1 -2.71988 -5.49887 23.1123 0.0025975 0.0283459 0.00574329 3
187 1 -1.3215 -6.02152 23.3783 0.0064056 0.00603794 -0.0380784 2
243 1 5.82964 -6.15392 22.4852 -0.00805097 -0.0148008 0.0386176 3
254 1 6.46159 -4.78458 22.7828 -0.0094333 -2.78023e-05 0.0120533 3
255 1 6.86737 -2.33116 23.6145 -0.000922464 0.00567494 0.0227834 3
244 1 5.98803 -3.71835 23.3439 0.0168439 0.0158048 0.0272973 3
227 1 3.72004 -5.66772 23.6016 0.0190594 -0.0035094 0.0212469 3
228 1 4.64694 -4.2222 23.9518 -0.00413735 -0.0097777 0.0543649 3
245 1 6.21452 -1.05395 24.1812 -0.0163965 0.0163141 0.00730557 3
229 1 4.69549 -3.1924 25.0288 0.0137041 -0.0118716 0.0266073 3
214 1 2.4954 -6.1885 23.7835 0.0202998 0.00324893 0.00156229 2
230 1 5.3127 -1.77616 25.2715 0.0138492 -0.0222852 0.0115756 3
231 1 5.59666 -0.81386 26.2837 0.0162603 0.0107549 0.0053875 2
267 1 7.95601 -4.63176 22.4297 -0.00271407 0.00909713 0.0204511 3
268 1 8.72104 -3.38388 22.2914 -0.00560004 0.00103545 0.0183797 3
269 1 8.18512 -2.18725 22.8482 0.00135164 -0.00141658 0.0219482 3
270 1 9.01252 -0.960465 22.6554 0.0137778 -0.012649 0.0134501 3
112 1 -9.21213 2.07809 22.1366 -0.00344108 -0.000131073 0.0259108 3
127 1 -7.63735 4.4915 22.2242 -0.0071142 -0.0163918 0.0309138 3
126 1 -7.68038 2.01345 22.287 0.000214754 8.42788e-05 0.00312922 3
138 1 -7.07605 5.98147 22.1868 0.00321001 0.000251479 0.0109901 3
137 1 -7.05191 3.21211 22.7867 -0.00970599 -0.014621 0.0081354 3
136 1 -6.77234 0.734632 22.4234 -0.0144346 -0.0115523 0.0121889 3
151 1 -5.42418 0.779818 23.0693 -0.00382644 -0.00830377 0.0229623 3
153 1 -5.56623 3.4591 23.277 0.00676035 0.00371229 0.00853366 3
154 1 -5.09914 4.86614 22.9725 0.00605113 -0.00263943 0.00463629 3
152 1 -4.88268 2.14539 23.7674 -0.0249456 -0.00763726 0.00414922 3
167 1 -3.91324 5.52918 23.4608 0.00130394 -0.00247435 0.0212846 3
194 1 -1.80052 5.99723 25.0005 -0.035636 0.0383296 0.00465046 2
177 1 -4.24684 5.38628 25.0604 2.00296e-05 -0.0152353 0.0234828 2
193 1 -2.92214 5.24354 25.669 -0.0116558 -0.0251688 -0.00772368 2
258 1 6.79538 5.91665 22.5251 -0.00662271 0.00962046 0.0278607 3
247 1 6.35575 4.64639 23.1343 -0.0142781 0.00111399 0.000366705 3
257 1 6.84637 3.15533 23.23 -0.00524345 -0.00139215 0.030406 3
256 1 6.73344 0.382374 23.6187 0.0100906 -0.00446108 -0.000881001 3
234 1 5.09939 5.34601 23.7293 0.0122382 -0.00221105 0.0313507 3
246 1 5.88893 1.77826 23.7134 0.00612862 -0.0211861 0.0289597 3
207 1 2.80745 5.52485 24.8991 0.00662266 0.0215526 0.0178259 2
232 1 5.33235 0.575465 26.9052 0.000349168 -0.0403017 0.0414807 2
233 1 5.39305 5.88456 25.1103 0.0201814 -0.00504065 0.00607754 2
217 1 3.88876 5.96806 25.6369 0.0272682 0.0262313 0.0088349 2
274 1 8.99907 4.10765 22.1827 0.0186478 0.00364682 0.0171038 3
272 1 9.0181 1.62103 22.7103 0.0206435 -0.00700142 0.0156511 3
273 1 8.30978 2.86297 22.6791 -0.0154667 0.01565 0.0152992 3
271 1 8.26526 0.307599 22.8475 0.0195973 0.000337573 0.00865097 3
179 1 -2.37207 8.80551 22.128 0.0144099 -0.0124054 0.00889865 3
155 1 -5.71793 6.33286 22.4692 0.00276236 0.0075463 0.0117991 3
178 1 -2.86405 6.59983 23.2525 -0.0131704 0.0238013 0.00865851 3
195 1 -1.39422 6.66626 23.7034 -0.0142596 0.0164155 0.0051759 2
156 1 -4.75943 7.55943 22.5931 -0.00418264 0.00397053 0.00592451 3
168 1 -3.28767 7.7863 22.4691 -0.0228984 0.00999239 -0.00339841 3
196 1 -0.0779442 7.5825 22.699 0.00107643 0.00918315 0.00209456 2
235 1 3.96927 6.38157 23.3648 0.0191586 0.00906991 0.0340735 3
248 1 5.93582 7.13677 22.3133 0.00332189 0.0139796 0.0119644 3
218 1 2.52325 6.59151 23.7443 0.00187691 -0.00591127 0.00914678 3
236 1 4.53474 7.25616 22.3485 0.00407938 -0.00557949 -0.00434221 3
208 1 1.52834 7.44078 22.912 -0.0171548 0.0123775 0.000255456 3
204 1 2.96455 -3.30656 28.3723 0.00978809 0.00944671 0.0265784 2
216 1 3.79565 -0.418287 28.9384 -0.0188193 0.0101951 0.0871635 3
165 1 1.19202 -0.836282 32.1881 0.0745916 0.00442221 0.0426734 2
215 1 3.93765 -2.87966 29.3034 0.036459 -0.0121081 0.00394088 3
175 1 1.92298 -2.09943 32.6756 0.0523027 0.00462159 0.0396349 2
188 1 2.7182 -2.86295 30.1376 -0.00499932 0.00160744 0.0447546 2
205 1 4.41236 -1.48525 29.8375 -0.0161309 -0.0016423 0.0233095 3
189 1 2.76785 -2.23092 31.351 0.0400646 0.00117107 0.0859209 3
190 1 3.5602 -0.861952 31.0444 0.0399049 0.00919487 0.0578686 3
166 1 0.0305267 0.734841 30.3292 0.00772454 -0.0487808 0.0550527 2
206 1 3.49475 1.15948 28.8273 0.0055613 0.0306453 0.0412917 3
176 1 1.24163 0.186901 31.4236 0.0322899 -0.00745498 0.0321988 3
191 1 2.53702 0.349923 30.8352 0.0424807 0.0157145 0.0106662 3
192 1 2.99877 1.4405 30.1482 -0.00420799 -0.00174643 0.0127769 2
