ITEM: TIMESTEP
7500
ITEM: NUMBER OF ATOMS
168
ITEM: BOX BOUNDS pp pp pp
-1.4715758017245314e+01 1.5057610017245315e+01
-1.2710055654020760e+01 1.2664508654020761e+01
-5.0001035148846022e+01 1.0000103514884636e+02
ITEM: ATOMS id type x y z vx vy vz c_coord
92 1 -10.834 -9.2494 20.0028 -0.00371586 -0.00187552 9.80112e-05 3
93 1 -10.8115 -6.75059 20.0084 0.00472579 0.00241548 0.000158651 3
103 1 -9.37101 -9.2124 20.0081 0.00573111 0.00300266 0.000218299 3
104 1 -8.65885 -7.93889 20.0197 -0.00473587 0.000740916 0.000140117 3
105 1 -9.3172 -6.70416 20.0222 -0.00639533 0.00310109 0.000153278 3
122 1 -7.23397 -7.96236 20.023 -0.00953929 0.00250128 4.59166e-05 3
132 1 -6.60234 -9.23126 20.0107 -0.000670221 0.0126394 0.000209309 3
133 1 -6.391 -6.79042 20.017 -0.0130211 0.00445617 0.000491486 3
143 1 -5.2001 -9.26713 20.0083 -0.00314237 -0.00124289 -8.25249e-05 3
144 1 -4.42695 -8.07445 19.9955 -0.00335731 -0.00671339 -0.000288773 3
145 1 -4.95742 -6.77326 19.9875 -0.00324252 -0.00266036 -7.3137e-05 3
162 1 -3.02155 -8.07377 19.9736 0.000482521 -0.0114721 -0.000478191 3
172 1 -2.25185 -9.2526 19.9858 0.00431756 -0.00967284 -0.000320916 3
173 1 -2.35943 -6.84615 19.9181 0.00803753 -0.00690264 -0.00167533 3
183 1 -0.834114 -9.22618 19.9797 0.00260589 -0.00218384 -0.000639902 3
184 1 -0.116726 -8.01467 19.938 0.0146217 -0.00823298 -0.00168659 3
185 1 -0.934179 -6.85543 19.8737 0.0124255 -0.0134073 -0.00273687 3
202 1 1.31033 -8.04128 19.9425 0.0179849 -0.00772886 -0.00107706 3
212 1 2.01822 -9.28823 19.9817 0.000970441 -0.005173 -0.000339453 3
213 1 1.96602 -6.79676 19.888 0.0102253 -0.000874647 -0.00317255 3
223 1 3.41277 -9.24708 19.984 0.000787911 0.00485677 -0.000368897 3
224 1 4.06284 -8.00478 19.9671 0.0112121 -0.0028163 -0.000450931 3
225 1 3.39301 -6.75928 19.9238 0.016778 0.000770562 -0.0012429 3
242 1 5.47034 -7.94211 19.9829 0.00757787 3.86322e-06 -0.000437835 3
252 1 6.16653 -9.22237 19.9979 0.00346831 -0.00294506 -0.000205764 3
253 1 6.19303 -6.74192 19.975 0.0123412 0.00784991 -0.000770169 3
265 1 7.60132 -6.77587 19.9929 0.0100041 0.00710597 -0.000557537 3
263 1 7.56565 -9.25419 20.0026 0.0119574 0.00181833 -0.000192105 3
264 1 8.26496 -8.03863 20.0049 0.0020994 0.00898907 -0.000299935 3
282 1 9.67088 -8.08138 20.0068 0.00206641 -0.00756557 -0.000212758 3
292 1 10.4858 -9.25058 20.0035 0.00384049 -0.00143974 -7.0223e-05 3
293 1 10.4947 -6.87952 20.0038 0.00145659 -0.0105413 -0.000174941 3
94 1 -10.8113 -4.32535 20.0092 0.00276067 0.00422448 -3.09265e-05 3
95 1 -10.8751 -1.85198 20.0075 0.000811515 -0.00858727 6.12376e-05 3
106 1 -8.54767 -5.53879 20.0296 -0.0128905 0.0073644 4.55636e-05 3
107 1 -9.35673 -4.3715 20.0262 -0.0058399 0.00333004 0.000140859 3
108 1 -8.70759 -3.15083 20.0199 0.00356186 -0.00316769 0.000261293 3
109 1 -9.39394 -1.92133 20.0182 0.00181914 -0.0031854 0.000337208 3
110 1 -8.82847 -0.620021 20.0073 0.00711584 -0.000781444 0.000234533 3
124 1 -7.26997 -3.09399 19.975 0.00342453 0.00274383 -0.000370739 3
125 1 -7.38602 -0.606725 19.9458 0.00760129 0.0050484 -0.00104662 3
123 1 -7.09307 -5.54542 20.0178 -0.0107637 0.00543385 0.000539579 3
134 1 -6.42459 -4.24558 19.9654 0.000639202 0.0049487 -0.000189935 3
135 1 -6.63603 -1.82991 19.8929 -0.00441853 -0.00122013 -0.00265628 3
146 1 -4.29853 -5.49335 19.9097 0.0149339 -0.00684881 -0.00164338 3
147 1 -4.98373 -4.20404 19.8741 0.00848985 -0.000541433 -0.00214673 3
148 1 -4.39141 -2.94556 19.753 0.0177086 0.00174903 -0.00194236 3
149 1 -5.22237 -1.82589 19.7336 -0.000290784 -0.00358018 -0.0074934 3
150 1 -4.4875 -0.646951 19.9627 0.0526938 -0.00305777 0.0411857 3
163 1 -2.94614 -5.5666 19.8399 0.0129681 -0.00550812 -0.00360007 3
164 1 -2.9546 -3.00365 19.9755 -0.00295848 -0.00154899 0.0352559 3
165 1 -3.54354 -0.656324 21.2702 0.00769352 0.00804896 0.0686531 3
174 1 -2.33064 -4.30061 19.8301 0.0155201 -0.00226534 0.010447 3
175 1 -2.62436 -1.93961 21.6188 -0.00941207 -0.0221638 0.127171 2
186 1 -0.257196 -5.59397 19.8367 0.00825198 -0.00324382 0.00539396 3
187 1 -0.900256 -4.25335 20.2309 0.00758215 -0.0118308 0.0369532 3
188 1 -0.427552 -3.26711 21.2068 0.0140987 0.00211509 0.057097 3
189 1 -1.06605 -2.18623 21.7952 0.0331525 0.00392176 0.074898 3
203 1 1.1861 -5.57759 19.8342 0.0111201 0.00614488 -0.00140635 3
204 1 1.15788 -3.27511 20.8852 0.00668489 -0.0202825 0.0846546 4
205 1 1.11526 -0.818795 21.6277 0.0185653 0.00847509 0.0422011 3
214 1 1.86864 -4.30708 19.9498 -0.00427121 0.011325 0.0268301 3
215 1 2.24018 -2.22425 21.6616 0.00281164 0.00299322 0.0522118 2
226 1 4.11104 -5.56518 19.8843 0.028798 -0.0060653 -0.00289141 3
227 1 3.35285 -4.36715 19.8137 0.00943462 0.000116769 -0.00323393 3
228 1 4.16624 -3.19813 19.8571 0.0317789 -0.00178746 0.0240953 3
229 1 3.37656 -1.99009 20.6232 0.00863646 -0.00961176 0.0611445 4
230 1 4.27858 -0.592435 20.6119 0.0195115 -0.0171286 0.055176 3
243 1 5.50701 -5.53949 19.9377 0.0154193 0.000566867 -0.0011169 3
244 1 5.50899 -3.18943 19.8448 0.0175025 -0.00186578 -0.00382106 3
245 1 5.55274 -0.623689 19.828 -0.0109384 -2.62173e-06 0.0119302 3
254 1 6.24102 -4.36261 19.9239 0.0192904 -0.00427107 -0.00202933 3
255 1 6.17283 -1.93251 19.842 0.0184704 0.00436983 -0.00443601 3
269 1 7.55219 -1.95937 19.9197 0.0101756 -0.0036623 -0.00211017 3
267 1 7.61993 -4.4073 19.9648 0.00951605 -0.00105172 -0.000796926 3
266 1 8.37556 -5.59145 19.9882 0.00462135 0.00489535 -0.000615693 3
268 1 8.31512 -3.16112 19.9602 0.0175625 -0.00163496 -0.000615149 3
270 1 8.21111 -0.657018 19.9354 0.013976 -0.0032354 -0.000916086 3
283 1 9.80668 -5.5985 19.9978 0.00325896 -0.00796529 -0.000427713 3
284 1 9.76109 -3.13172 19.9821 0.0136618 -0.00388944 -0.000526479 3
285 1 9.66443 -0.626034 19.9708 0.0107018 0.0041456 -0.000628089 3
294 1 10.5106 -4.34141 19.9936 -0.00388223 -0.00250666 -0.000459317 3
295 1 10.4631 -1.86343 19.9858 0.00922897 0.0060634 -0.000530226 3
96 1 -10.9003 0.599002 20.0055 0.00300684 -0.00148911 0.000164447 3
97 1 -10.8719 3.07547 20.0068 0.00469616 0.00414054 0.000115742 3
98 1 -10.853 5.48059 20.0079 -0.00246236 0.00372192 -1.16233e-05 3
111 1 -9.49032 0.601695 20.0119 -0.00210284 0.0030414 0.000369988 3
112 1 -8.84658 1.87615 20.0082 0.0149073 0.0012654 -6.26031e-05 3
113 1 -9.46548 3.1414 20.0167 0.00180884 0.00345477 0.000329534 3
114 1 -8.65165 4.32306 20.019 0.00484276 -0.00588752 3.81318e-05 3
115 1 -9.41545 5.48402 20.0205 -0.00811939 0.00127778 0.000101618 3
126 1 -7.40826 1.83 19.9542 0.011423 -0.00150889 -0.00132186 3
127 1 -7.21118 4.27418 19.9894 -0.00231647 -0.0021066 9.8384e-05 3
136 1 -6.71335 0.623933 19.8822 -0.00677996 0.00287063 -0.00267752 3
137 1 -6.63555 2.99868 19.9294 -0.0178083 0.00423321 -0.000146189 3
138 1 -6.51405 5.4993 19.993 0.000473873 -0.00201724 0.00022779 3
151 1 -5.30842 0.548475 19.7538 -0.0104876 -0.0118577 -0.00493848 3
152 1 -4.64908 1.82415 19.7649 0.00410274 -0.0103439 0.00785822 3
153 1 -5.24506 3.04778 19.8209 -0.0160239 0.0143746 -0.00280296 3
154 1 -4.55536 4.26582 19.807 0.000382034 0.0156158 -0.00760767 3
155 1 -5.10196 5.55165 19.9363 -0.00633148 0.00738428 -0.00201277 3
166 1 -3.29411 1.90563 20.3749 0.000355383 0.00235949 0.0846871 3
167 1 -3.2195 4.4571 19.8002 0.00726716 0.0122343 0.0139605 3
176 1 -2.38611 0.290464 21.005 0.021518 0.0212743 0.0672493 3
177 1 -2.67385 3.29706 20.8396 -0.000849368 0.0192469 0.0760519 3
178 1 -2.37314 5.56527 19.8315 -0.00139142 0.0227827 -0.00474546 3
191 1 -1.16511 0.425033 21.9216 -0.00215701 0.0108812 0.0617516 3
192 1 -0.241169 1.34801 21.4706 -0.00488091 -0.00681012 0.0710494 3
193 1 -1.27341 3.03924 20.8035 0.0169259 0.0196498 0.0730734 3
194 1 -0.511792 4.24872 20.0959 -0.00942862 -0.0199152 0.0280293 4
195 1 -0.983067 5.66404 19.8418 0.00689733 -0.000369948 0.00413918 3
206 1 1.1858 1.75725 21.4458 0.0174325 -0.00236307 0.0614809 4
207 1 1.19384 4.25011 20.1889 0.0139876 -0.00510652 0.0375779 4
216 1 2.06984 0.366334 21.4913 -0.0130693 0.00234156 0.0784547 4
217 1 1.91117 3.06714 21.0106 0.0101989 0.0294787 0.0792194 3
218 1 1.93339 5.5557 19.85 0.0029436 -0.00999153 0.00411096 3
231 1 3.52811 0.56434 20.9191 0.0128709 0.0122397 0.0437984 3
232 1 3.92554 1.84385 20.179 -0.00876515 -0.000680013 0.036376 4
233 1 3.18871 3.15623 20.5955 0.0214444 -0.0135966 0.0581999 3
234 1 4.07037 4.29805 19.853 0.00840253 -0.000481726 0.00970676 3
235 1 3.33872 5.51138 19.8684 0.0156658 0.00204718 -0.00329391 3
246 1 5.50738 1.93125 19.8352 -0.0211871 0.00636775 0.00410767 3
247 1 5.50971 4.31359 19.8832 0.00645948 0.00364498 -0.00349996 3
256 1 6.22873 0.691573 19.8435 0.013916 0.00443222 -0.00476059 3
257 1 6.30503 3.13964 19.8897 0.0162866 -0.0108308 -0.00280419 3
258 1 6.23888 5.50773 19.9497 0.0167193 0.00828022 -0.00134601 3
271 1 7.62174 0.63027 19.9082 0.0161252 2.43042e-05 -0.00214504 3
275 1 7.65512 5.58384 19.9778 0.00931789 0.000690672 -0.000747072 3
273 1 7.72555 3.21015 19.9422 0.010464 0.00236313 -0.00141372 3
272 1 8.27038 1.90927 19.9425 0.00449013 -0.00314314 -0.0010956 3
274 1 8.4294 4.39205 19.9728 0.00799959 0.00109939 -0.000680929 3
286 1 9.66896 1.83115 19.9727 0.0107705 0.00367956 -0.00042846 3
287 1 9.82076 4.32428 19.9864 0.0108066 0.00499841 -0.000358737 3
296 1 10.4028 0.609485 19.9823 0.00421339 -0.00503105 -0.000497409 3
297 1 10.5054 3.04805 19.9875 0.0112963 -0.00110321 -0.000360453 3
298 1 10.548 5.56682 19.9971 0.012251 0.00159556 -0.000295998 3
99 1 -10.809 7.98063 20.0052 0.00182233 -0.012335 7.6123e-05 3
116 1 -8.64931 6.65922 20.0226 0.00355112 0.00779584 0.000133879 3
117 1 -9.38282 7.90041 20.014 -0.00649166 -0.00415554 0.000130157 3
118 1 -8.71746 9.14279 20.0099 0.00466751 0.00485816 8.49104e-05 3
128 1 -7.2239 6.68639 20.0188 -0.00838891 -0.00593016 0.000156292 3
129 1 -7.30307 9.18359 20.0119 -0.00863447 -0.00541917 0.000107623 3
139 1 -6.61008 7.95766 20.0153 -0.0176627 -0.00488158 0.000245203 3
156 1 -4.44194 6.81968 19.9649 -0.00246442 0.00449466 -0.000651617 3
157 1 -5.20465 8.02203 20.0013 -0.0118599 -0.00466417 -0.000108029 3
158 1 -4.48721 9.20524 19.9976 -0.0117717 -0.00430513 -0.000127462 3
168 1 -3.04835 6.78877 19.9198 0.00204229 0.0137614 -0.0022103 3
169 1 -3.08004 9.21761 19.9903 -0.0100145 0.00472131 -0.000312409 3
179 1 -2.37382 7.99528 19.9577 -0.000721145 0.0114506 -0.000573978 3
196 1 -0.210717 6.80001 19.8743 0.0160066 0.0115427 -0.00186847 3
197 1 -0.965104 7.99261 19.9387 0.00497668 0.0163122 -0.00108229 3
198 1 -0.20499 9.18119 19.9747 0.0139009 0.00769471 -0.000504925 3
208 1 1.25864 6.76386 19.8736 0.0205444 -0.000903007 -0.00275225 3
209 1 1.24005 9.19273 19.9761 0.0104726 0.00401132 -0.000339172 3
219 1 1.99311 7.96735 19.9411 0.0151204 0.00261625 -0.00142709 3
236 1 4.08751 6.71054 19.9284 0.0191918 0.00308329 -0.00196637 3
237 1 3.41664 7.92637 19.9569 0.0121703 -0.00174048 -0.000833314 3
238 1 4.11375 9.14115 19.9859 0.0105416 -0.00362679 -0.000365243 3
248 1 5.44924 6.69109 19.9603 0.0174296 0.00569307 -0.000474727 3
249 1 5.47784 9.13183 19.9923 0.00409048 0.000250891 -0.000364474 3
259 1 6.16311 7.89388 19.9858 0.0110037 -0.000280181 -0.000525446 3
277 1 7.5947 7.94991 19.9989 0.00627695 -0.0052858 -0.000470619 3
276 1 8.38761 6.76632 19.9966 0.00906928 -0.00142272 -0.000487607 3
278 1 8.31728 9.17621 20.0048 0.00667252 -0.000433055 -0.000126494 3
288 1 9.81361 6.79905 20.0019 0.00592771 -0.00130078 -0.000395289 3
289 1 9.7508 9.22798 20.0051 0.00597053 -0.000144431 -0.00010108 3
299 1 10.5012 8.03166 20.0045 -0.0010142 -0.00229064 -0.000128976 3
190 1 -0.264184 -0.785013 22.4668 -0.0139096 -0.0214601 0.0568463 3
