ITEM: TIMESTEP
5300
ITEM: NUMBER OF ATOMS
168
ITEM: BOX BOUNDS pp pp pp
-1.4715758017245314e+01 1.5057610017245315e+01
-1.2710055654020760e+01 1.2664508654020761e+01
-5.0001035148846022e+01 1.0000103514884636e+02
ITEM: ATOMS id type x y z vx vy vz c_coord
92 1 -10.8272 -9.24565 20.0008 -0.00328375 -0.0035112 4.90409e-05 3
93 1 -10.7618 -6.76429 20.0057 0.00161294 0.00312845 0.00013216 3
103 1 -9.36455 -9.20273 20.0048 0.00644496 -8.12099e-05 0.000120545 3
104 1 -8.55876 -8.04534 20.0151 0.00607894 0.00155933 0.000251569 3
105 1 -9.28406 -6.84282 20.0177 0.0044312 0.00412506 0.000236906 3
122 1 -7.15175 -8.06437 20.0175 0.00371257 0.00387091 0.000280954 3
132 1 -6.44347 -9.2623 20.0097 -0.00298705 0.00614028 4.13154e-05 3
133 1 -6.52725 -6.82323 20.0098 0.0168697 -0.00230985 0.00016173 3
143 1 -5.05419 -9.23504 20.007 -0.00518781 -0.000798592 0.0001085 3
144 1 -4.37667 -7.95671 19.9977 -0.00081709 -0.00348356 4.47625e-05 3
145 1 -5.13727 -6.76973 19.9896 0.0117165 0.00479911 -0.000167952 3
162 1 -2.9954 -7.91091 19.9824 -1.29544e-06 -0.0046609 -0.000215186 3
172 1 -2.38817 -9.23022 19.9957 0.00125593 -0.00597162 -0.000332333 3
173 1 -2.41635 -6.64342 19.9363 0.000274564 0.000422445 -0.000734904 3
183 1 -1.001 -9.24459 19.9917 0.00505255 0.00874895 -0.000433492 3
184 1 -0.414097 -7.96501 19.963 0.00489376 0.00239361 -0.000910034 3
185 1 -1.01854 -6.6494 19.9183 0.00931989 -0.00108711 -0.00137173 3
202 1 0.981 -8.00276 19.9633 0.0094483 0.00133288 -0.000848397 3
212 1 1.81242 -9.18824 19.9863 0.0109841 0.00194569 -0.000264192 3
213 1 1.66022 -6.7976 19.9292 0.00886977 0.00314882 -0.00137645 3
223 1 3.19956 -9.24487 19.99 0.00717388 0.00791971 -0.00030591 3
224 1 3.8705 -8.02788 19.9798 0.00588916 0.00193697 -0.000610245 3
225 1 3.06642 -6.82646 19.9471 0.0106351 0.00515907 -0.00102243 3
242 1 5.35251 -8.05943 19.9935 0.00261043 0.00498429 -0.000432982 3
252 1 6.1854 -9.23396 20.003 -0.012111 -0.00928893 -0.000247638 3
253 1 6.02367 -6.83269 19.9909 0.00380265 0.00515115 -0.000569303 3
265 1 7.47742 -6.83948 20.0036 0.0019524 -0.00611057 -0.000342635 3
263 1 7.59513 -9.24278 20.0061 -0.00653089 -0.00763742 -0.000111212 3
264 1 8.31985 -8.01322 20.0095 -0.000550334 -0.011379 -0.000113499 3
282 1 9.77121 -7.94355 20.0087 -0.00385708 -0.00171013 2.59531e-05 3
292 1 10.4971 -9.18598 20.0039 0.00471663 0.00714842 5.40525e-05 3
293 1 10.4867 -6.68127 20.0067 0.00455254 -0.00438625 -8.56042e-05 3
94 1 -10.7661 -4.34742 20.0108 -0.00203038 -0.00213864 7.00393e-05 3
95 1 -10.9003 -1.85861 20.0082 -0.010715 -0.000157523 -8.50881e-05 3
106 1 -8.65218 -5.61164 20.0218 0.0174606 -0.00171715 0.000614561 3
107 1 -9.35182 -4.35672 20.0188 0.0160072 -0.000197471 0.000474503 3
108 1 -8.73413 -3.09487 20.0093 0.00520217 0.00164977 0.000468088 3
109 1 -9.42895 -1.90123 20.0098 0.00257773 -0.000913534 0.000409974 3
110 1 -8.79483 -0.642661 19.9979 -0.00286649 0.00431735 0.000556293 3
123 1 -7.2803 -5.62335 20.0094 0.028482 -0.00125634 6.81373e-05 3
124 1 -7.36287 -3.12769 19.9741 0.00914285 0.000815696 -0.000191458 3
125 1 -7.39374 -0.642942 19.9494 0.00394017 0.000822738 -0.000261476 3
134 1 -6.66237 -4.32533 19.971 0.0177462 0.00657916 -0.000646218 3
135 1 -6.72622 -1.88236 19.9285 0.00784699 -0.000889522 -0.000782361 3
146 1 -4.57083 -5.49501 19.9358 0.0107914 0.00513366 -0.00109207 3
147 1 -5.28557 -4.30868 19.9172 0.00957776 0.00601552 -0.00121773 3
148 1 -4.66306 -3.06433 19.833 0.0187165 0.00657369 -0.00359381 3
149 1 -5.35421 -1.85818 19.8425 0.00565882 -0.00107339 -0.00208134 3
150 1 -4.75478 -0.609867 19.7856 0.0161878 0.00330916 -0.00403751 3
163 1 -3.19128 -5.44633 19.896 0.00145642 0.000899599 -0.00117414 3
164 1 -3.27349 -3.0439 19.7663 0.0140986 0.000526313 -0.0041428 3
165 1 -3.32842 -0.531274 19.7364 -0.00516892 -0.012297 0.0222014 3
174 1 -2.51588 -4.2085 19.8118 0.00388194 -0.00774197 -0.00100703 3
175 1 -2.6568 -1.77928 19.7389 0.0106154 0.0155346 0.00873111 3
186 1 -0.360281 -5.43207 19.8587 0.0080504 -4.73247e-05 -0.00201369 3
187 1 -1.09902 -4.23683 19.7962 0.00721328 -0.00583804 -0.000221851 3
188 1 -0.429005 -3.02797 19.8489 -0.000383424 -0.00987445 0.0391704 3
189 1 -1.28038 -1.90666 20.3906 0.0231008 0.000255055 0.0684315 3
190 1 -0.41615 -0.81352 20.5361 -0.014936 -0.0365211 0.107214 3
203 1 0.995403 -5.5426 19.8742 0.00961225 -0.0025279 -0.00162795 3
204 1 0.985895 -3.07433 19.8451 0.010919 -0.0100967 0.012251 4
205 1 1.02109 -0.907693 20.4341 0.0239438 -0.0302606 0.0837962 4
214 1 1.65094 -4.33155 19.8301 0.0103749 -0.01191 -0.000566399 3
215 1 1.90272 -2.00962 20.1155 0.030674 -0.0200531 0.0767966 3
226 1 3.77826 -5.62385 19.9269 0.00275323 0.00484481 -0.00137372 3
227 1 3.066 -4.38013 19.8664 -9.52376e-05 0.00265345 -0.00186409 3
228 1 3.86135 -3.17805 19.8477 0.00431647 -0.00044267 -0.00248912 3
229 1 3.17555 -1.90985 19.8077 0.00917419 -0.000338292 0.00204595 3
230 1 3.92106 -0.664756 19.8097 0.016372 -0.00369872 0.000752512 3
243 1 5.23932 -5.62287 19.9567 0.00539882 0.00305476 -0.000862233 3
244 1 5.30912 -3.13465 19.9002 0.000838742 -0.00369142 -0.00143325 3
245 1 5.34869 -0.630237 19.861 0.0048736 0.000195908 -0.0021568 3
254 1 5.95465 -4.39642 19.9479 0.00810328 0.0015092 -0.0005735 3
255 1 6.01157 -1.87734 19.902 -0.00158979 0.0038131 -0.00176037 3
269 1 7.46764 -1.83064 19.9489 -0.003978 0.00230733 -0.00128139 3
267 1 7.39287 -4.32831 19.9765 0.0061382 -0.0108727 -0.000406461 3
266 1 8.1532 -5.58299 20.0001 0.0130194 -0.00866603 -0.000379383 3
268 1 8.14641 -3.08726 19.9757 0.000599184 -0.000680704 -0.000780223 3
270 1 8.26097 -0.596378 19.9624 -0.00818546 0.000653671 -0.00124722 3
283 1 9.62968 -5.48168 20.0058 0.00591415 0.00235156 -0.000301305 3
284 1 9.61596 -3.04041 19.9944 8.91677e-05 -0.00676482 -0.000468741 3
285 1 9.71516 -0.659441 19.9873 -0.0102199 -0.00147329 -0.000716437 3
294 1 10.4064 -4.26898 20.0024 0.00186978 -0.00138732 -0.000309435 3
295 1 10.4943 -1.84983 19.996 -0.00312402 0.00151959 -0.000350422 3
96 1 -10.9173 0.593762 20.0056 -0.00657026 -0.00688043 -0.000131994 3
97 1 -10.8999 3.06003 20.0067 -0.00319671 0.00683982 -5.11817e-05 3
98 1 -10.8113 5.46857 20.0069 0.00234229 -0.0054539 9.82184e-05 3
111 1 -9.46321 0.584218 20.0052 -0.00422172 -0.00144978 0.000315281 3
112 1 -8.74795 1.77945 19.9987 -0.00499858 0.00558275 0.000575061 3
113 1 -9.45287 2.9923 20.01 -0.00520123 0.00621302 0.000315084 3
114 1 -8.76219 4.26467 20.012 0.00977287 -0.00435934 0.000429276 3
115 1 -9.33865 5.55012 20.0168 -0.00744833 -0.0104407 0.000256671 3
126 1 -7.39358 1.82775 19.9564 0.00235649 -0.00293373 -0.000133345 3
127 1 -7.36391 4.31014 19.988 0.0189573 -0.00435281 -0.000351933 3
136 1 -6.76808 0.59353 19.9181 0.00113692 0.00409319 -0.00053007 3
137 1 -6.73143 3.05276 19.9451 0.00628522 -0.00575837 -0.000658196 3
138 1 -6.65983 5.52532 19.9909 0.0098555 -0.00330682 -7.56431e-05 3
151 1 -5.4204 0.608993 19.8328 0.00210725 0.00781094 -0.00191256 3
152 1 -4.73801 1.81943 19.8081 0.0247494 -0.00293795 -0.00385971 3
153 1 -5.36088 3.06817 19.8799 0.0108368 0.000161522 -0.00199568 3
154 1 -4.60217 4.25687 19.8869 0.0184313 -0.00478303 -0.00214973 3
155 1 -5.2782 5.4967 19.9577 0.00796218 -0.00387371 -0.000553009 3
166 1 -3.30138 1.73702 19.7501 0.00367979 0.00891955 0.00178167 3
167 1 -3.24388 4.19872 19.8344 0.00624001 -0.00269482 -0.00252119 3
176 1 -2.67575 0.572832 19.9191 -0.0267676 -0.00274619 0.0400212 3
177 1 -2.66141 2.9711 19.7646 -0.00299906 -0.00377453 0.000126143 3
178 1 -2.5343 5.37028 19.8782 0.00287153 0.00228057 -0.00117742 3
191 1 -1.31366 0.346625 20.357 0.00597057 -0.0220811 0.0627513 3
192 1 -0.74481 1.67304 20.0557 -0.00313495 -0.000382516 0.0439612 3
193 1 -1.257 3.01026 19.8315 0.00477266 0.0159792 0.0222292 3
194 1 -0.404383 4.17227 19.7978 0.0026062 0.0160219 0.00053185 3
195 1 -1.11472 5.36959 19.856 0.000828519 0.00726205 -0.00157906 3
206 1 1.06115 1.79348 19.942 0.00980018 -0.00419939 0.0666238 3
207 1 0.993272 4.22469 19.8156 0.00179251 0.0104073 -0.000198315 3
216 1 1.86171 0.488576 19.9949 0.0179392 -0.00956037 0.0339305 4
217 1 1.80397 3.07191 19.8355 -0.000408862 0.00590196 0.0278885 3
218 1 1.63129 5.47521 19.876 0.0058226 0.00531274 -0.001691 3
231 1 3.32598 0.604567 19.851 0.0306444 0.00861848 0.03612 3
232 1 3.91638 1.8504 19.8261 0.0198623 0.00388844 0.000255898 3
233 1 3.17424 3.08072 19.8293 0.00636148 -0.00331534 -0.000705362 3
234 1 3.79814 4.35613 19.8836 0.0113395 -0.00802129 -0.00167721 3
235 1 3.04004 5.56465 19.9058 0.00662398 -0.00830512 -0.00172308 3
246 1 5.33742 1.81484 19.8769 0.00381692 0.00743892 -0.00167268 3
247 1 5.25261 4.30138 19.9259 -0.000581466 -0.00154806 -0.00111426 3
256 1 6.04916 0.618403 19.8941 -0.00296696 0.00135626 -0.00194382 3
257 1 5.98006 3.06767 19.9222 0.00754524 0.00418938 -0.000854291 3
258 1 5.98202 5.53496 19.9681 0.0115794 -0.0111021 -0.000631927 3
271 1 7.50782 0.618035 19.9442 -0.00271474 0.00372782 -0.00143744 3
273 1 7.45118 2.99233 19.9601 0.00505129 0.00935477 -0.000752553 3
275 1 7.41609 5.52432 19.9902 0.0119864 0.00664367 -0.000371771 3
272 1 8.31047 1.82717 19.9679 -0.00208454 0.00447898 -0.00106887 3
274 1 8.18446 4.25811 19.9857 0.0061697 0.00805444 -0.000548375 3
286 1 9.73476 1.79303 19.9877 -0.00475501 -0.00643089 -0.000691516 3
287 1 9.6471 4.28623 19.9975 -0.000787983 0.00822666 -0.000519829 3
296 1 10.5039 0.570583 19.9932 0.00170331 -0.00110583 -0.000367225 3
297 1 10.4789 3.06853 19.9965 0.00114019 -0.00700811 -0.000393838 3
298 1 10.4287 5.51694 20.0039 0.00599431 0.00294512 -0.000251983 3
99 1 -10.8239 7.97039 20.0034 0.00823979 -0.010889 0.000130736 3
116 1 -8.65239 6.79733 20.0178 -0.000188888 -0.00198314 0.000330217 3
117 1 -9.35892 8.02549 20.0111 -0.00471533 -0.00224556 8.94335e-05 3
118 1 -8.65875 9.22635 20.0072 -0.00244063 -0.00115346 0.000113307 3
128 1 -7.21361 6.81449 20.0142 0.0138509 -0.000618484 0.000311541 3
129 1 -7.22775 9.17403 20.0093 -0.00264584 0.000953293 0.000143914 3
139 1 -6.41444 8.00087 20.0109 -0.000136756 0.00197602 0.000148863 3
156 1 -4.48818 6.66393 19.9711 0.00599372 -0.00020944 -0.000362562 3
157 1 -5.02283 7.98622 20.0015 0.00537482 0.00443387 6.69224e-05 3
158 1 -4.35145 9.21611 20.0019 0.00583428 0.00653856 -0.000184611 3
168 1 -3.10118 6.65973 19.9434 0.00240532 0.000389497 -0.000767963 3
169 1 -2.95157 9.16573 19.9967 0.0058559 0.000251491 -0.000216074 3
179 1 -2.36157 7.87505 19.9703 0.00182422 -0.00423584 -0.000709653 3
196 1 -0.422131 6.63978 19.9146 0.00482382 0.00107715 -0.00154978 3
197 1 -0.980944 7.93282 19.962 -0.00173757 -0.0016496 -0.000956176 3
198 1 -0.290187 9.20319 19.9869 -0.00308859 -0.00312337 -0.000470402 3
208 1 0.968648 6.71639 19.9207 0.00982482 -0.00248677 -0.00155843 3
209 1 1.1263 9.28275 19.986 -0.0039345 -0.00533865 -0.000485417 3
219 1 1.6714 7.9818 19.9619 0.00349169 -0.00136326 -0.000815783 3
236 1 3.81204 6.78991 19.9558 0.00684213 -0.00676455 -0.00101005 3
237 1 3.10274 7.99673 19.9724 0.00703948 0.000453734 -0.000562341 3
238 1 3.98806 9.14569 19.9936 0.00949414 -0.000470101 -0.000257289 3
248 1 5.25542 6.78478 19.976 0.00573206 -0.0067871 -0.000760444 3
249 1 5.39168 9.22248 19.9988 0.00262395 0.00216728 -0.000176856 3
259 1 6.04163 7.99346 19.9983 0.00148385 -0.00691446 -0.00048604 3
277 1 7.50242 8.01896 20.0066 -0.00103314 -0.000731454 -0.000236706 3
276 1 8.20166 6.74825 20.0062 0.00622287 0.00446237 -0.000334583 3
278 1 8.34075 9.17705 20.0063 -0.0038178 0.00489772 -3.17416e-05 3
288 1 9.6654 6.74392 20.0081 0.00131934 0.010886 -0.000147027 3
289 1 9.77592 9.19722 20.0054 -0.00102284 0.00553065 4.25907e-05 3
299 1 10.4709 7.94259 20.006 -0.00353811 0.00588087 2.04249e-05 3
