ITEM: TIMESTEP
20800
ITEM: NUMBER OF ATOMS
168
ITEM: BOX BOUNDS pp pp pp
-1.4715758017245314e+01 1.5057610017245315e+01
-1.2710055654020760e+01 1.2664508654020761e+01
-5.0001035148846022e+01 1.0000103514884636e+02
ITEM: ATOMS id type x y z vx vy vz c_coord
92 1 -10.877 -9.227 19.9234 0.0105412 0.00415285 -0.00529315 3
93 1 -10.9171 -6.81758 19.8466 -7.5286e-05 -0.00611647 -0.00225721 3
103 1 -9.46631 -9.2512 19.8034 0.0118134 0.00514626 -0.00519296 3
104 1 -8.6738 -7.94937 19.7754 0.00472575 -0.00678775 0.00662053 3
105 1 -9.43394 -6.7408 19.836 0.00632555 -0.00220083 0.0122182 3
122 1 -7.40295 -8.04592 20.3923 -0.0245801 -0.00224829 0.0333039 3
132 1 -6.63623 -9.26824 20.3647 -8.20742e-05 -0.00422549 0.0333635 3
133 1 -7.03567 -6.92746 21.2542 -0.00760931 -0.0197027 0.0323014 3
143 1 -5.2119 -9.41859 20.8846 -0.0245555 -0.0080679 0.008799 3
144 1 -4.82862 -8.2528 21.4896 -0.00599571 -0.0174929 0.00732734 3
145 1 -5.69309 -6.96554 21.7838 -0.0156441 -0.0157672 0.0361006 3
162 1 -3.40694 -8.94354 21.9711 -0.0152295 -0.00909149 0.0316766 3
172 1 -2.59172 -9.82395 21.2625 0.009999 0.0140166 0.0177384 3
183 1 -1.05602 -9.78732 21.2193 0.00136253 0.0178525 -0.0167458 3
212 1 2.00833 -9.73311 21.2016 0.000364708 -0.00529214 -0.0187643 3
223 1 3.45474 -9.63283 21.1132 -0.000521288 0.0209695 -0.0138243 3
224 1 4.24903 -8.51678 21.7344 0.0025395 -0.0072957 0.0240177 3
242 1 5.7781 -8.35657 21.4225 0.019043 -0.000957827 0.0185861 3
252 1 6.32435 -9.33924 20.5773 -0.00320422 -0.0130809 0.0334742 3
253 1 6.54155 -7.09284 21.6926 0.0169582 -0.00263951 0.0327144 3
263 1 7.63975 -9.20083 20.0067 0.016625 -0.0120189 0.0211788 3
202 1 1.18435 -8.81702 21.9049 -0.0102367 0.000723753 0.00217063 3
265 1 7.80967 -6.93459 20.8517 0.0137005 -0.00771146 0.0430672 3
264 1 8.37531 -7.95963 19.8891 -0.00207779 0.000301442 0.0298446 3
282 1 9.86729 -7.93398 19.6501 -0.0013048 0.00570919 -0.00381294 3
292 1 10.4835 -9.20174 19.8204 -0.00508677 0.000513018 -0.0070341 3
293 1 10.5375 -6.65559 19.799 -0.00485095 0.00909106 -0.000774801 3
94 1 -10.7269 -4.28209 19.9757 0.0122293 0.00651502 0.0126339 3
95 1 -10.8081 -1.89228 20.4659 -0.0123173 -0.00544955 0.0219946 3
106 1 -8.93289 -5.56033 20.6034 -0.0119663 -0.0130498 0.0370102 3
107 1 -9.40202 -4.22214 20.5592 -0.00531766 -0.00327722 0.0526244 3
108 1 -8.89655 -3.05412 21.3429 0.00523033 0.000663763 0.0409021 3
109 1 -9.5858 -1.77727 21.2005 -0.00461436 0.0112379 0.0337462 3
110 1 -8.8079 -0.580531 21.4652 -0.0172065 -0.00598892 0.0420891 3
125 1 -7.49057 -0.420103 22.1111 -0.00550152 0.00298546 0.0207464 3
124 1 -7.58592 -3.0027 21.9794 -0.00677626 -0.00116499 -0.00647824 3
123 1 -7.75359 -5.63793 21.3398 -0.0200074 0.015512 0.0135001 3
134 1 -7.09058 -4.39877 21.8944 -0.0189908 0.00316471 -0.00165465 3
267 1 8.21073 -4.60393 21.7391 0.00185714 -0.018138 0.0288649 3
266 1 8.6678 -5.64303 20.9127 0.014546 -0.0179726 0.0309151 3
268 1 8.82593 -3.27642 21.8678 0.00826838 -0.0069875 0.0201595 3
283 1 9.90803 -5.40107 20.1909 -0.00927062 0.00304095 0.0335151 3
284 1 10.0353 -2.98309 21.0653 0.0120102 -0.0170345 0.0263398 3
285 1 10.0076 -0.666194 21.5076 0.0201296 0.00794026 0.0362973 3
294 1 10.5282 -4.18018 20.2091 0.00843098 -0.0166188 0.0227991 3
295 1 10.7102 -1.76553 20.7863 0.0127478 -0.0247324 0.0282523 3
96 1 -10.8897 0.620989 20.5685 -0.00269403 0.00439118 0.0203966 3
97 1 -10.7858 3.02625 20.2001 0.00523536 0.000429456 0.0293975 3
98 1 -10.9132 5.48962 19.869 -0.00761043 -0.000133098 0.00385073 3
111 1 -9.58112 0.753713 21.1762 -0.016792 -0.00303143 0.0249354 3
112 1 -8.7358 1.97288 21.3954 -0.034779 0.0118894 0.0242017 3
113 1 -9.40708 3.0953 20.9057 -0.0248689 0.0121355 0.0407562 3
114 1 -8.90309 4.53728 21.0451 0.00112832 0.0134889 0.0396524 3
115 1 -9.41168 5.50316 20.2105 0.00942379 0.0189247 0.0277411 3
127 1 -7.61713 4.64998 21.7696 -0.000151819 -0.00128436 0.012705 3
138 1 -6.93514 5.96874 21.8788 -0.0100574 0.000986295 0.0191503 3
258 1 6.66918 5.54787 22.1096 0.0204502 -0.00815714 0.0149201 3
275 1 8.02255 5.54224 21.6421 0.0150031 -0.00883246 0.0237661 3
272 1 8.79067 1.73966 22.0772 0.0102483 -0.0281501 0.0209557 3
274 1 8.60911 4.1971 21.7034 0.00830685 -0.00510891 0.0222253 3
286 1 10.1197 1.74335 21.5483 0.0184434 0.0112468 0.0279276 3
287 1 10.0042 4.19686 21.0509 0.0258833 -0.0080927 0.0253772 3
296 1 10.8896 0.508588 21.1648 0.0163223 0.0013618 0.0197033 3
297 1 10.7876 2.92367 20.8591 0.0110488 0.00434569 0.0385012 3
298 1 10.4581 5.47145 20.3114 -0.00121087 0.00145208 0.027224 3
99 1 -10.863 7.94086 19.8626 -0.0139512 0.00150557 -0.00288952 3
116 1 -8.7027 6.77943 20.0843 -0.00178678 0.0112061 0.0243335 3
117 1 -9.54302 7.95004 19.6483 0.00595258 0.00676416 -0.00836088 3
118 1 -8.83256 9.1653 19.7007 -0.0054009 0.0135966 0.00138706 3
128 1 -7.57851 6.93749 20.932 0.000157856 0.00781926 0.0426906 3
129 1 -7.31085 9.20907 19.9771 0.00327026 -0.00754528 0.0174852 3
139 1 -6.74449 8.06892 20.6685 -0.00647514 0.00734357 0.0276075 3
156 1 -4.59323 7.14571 22.0982 0.00192587 0.00484164 0.0459438 3
157 1 -5.30849 8.08796 21.1668 0.0064332 0.0153491 0.0338011 3
158 1 -4.46369 9.25135 20.8825 -0.0220386 0.023696 0.0134338 3
169 1 -3.0425 9.47842 21.082 -0.00971747 0.0263077 -0.000876273 3
179 1 -2.28498 8.48593 21.8518 0.00919193 0.0311763 0.0122764 3
198 1 -0.0833789 9.80252 21.2938 0.0105532 -0.00276286 -0.00108409 3
209 1 1.31847 9.81804 21.2587 0.0144065 -0.0219925 -0.00904219 3
237 1 3.62265 8.61399 22.0045 0.0164218 0.00178791 0.00342968 3
238 1 4.25847 9.5067 21.0099 0.00620358 0.0135908 0.00582361 3
248 1 5.81317 6.99075 21.8933 0.00208045 0.0179701 0.0163187 3
249 1 5.65043 9.35715 20.9353 -9.76462e-05 0.0206649 0.0202211 3
259 1 6.4367 8.11204 21.185 -0.0018255 0.00171623 0.0356921 3
277 1 7.75877 7.96098 20.5156 0.00708665 0.00233939 0.0312315 3
276 1 8.47438 6.65635 20.6944 0.00752269 0.00561939 0.0418515 3
278 1 8.3999 9.14672 19.9661 -0.00455232 -0.00981408 0.0144793 3
288 1 9.7786 6.69684 20.0635 -0.00765153 -0.0147403 0.0264437 3
289 1 9.74685 9.24624 19.7841 -0.00764247 -0.0139979 -0.00276361 3
299 1 10.5121 8.05545 19.8193 0.000471584 -0.0162982 0.00247915 3
173 1 -2.79592 -7.9531 22.7225 0.00347194 -0.0173101 0.00437379 3
184 1 -0.377167 -8.8742 22.0619 -0.00450252 -0.0118931 -0.00274811 3
185 1 -1.3389 -8.10644 22.9474 0.0132857 -0.0244444 -0.000228679 3
186 1 -0.405378 -7.04872 23.5691 -0.00709679 -0.020173 -0.0101166 3
225 1 3.51685 -7.4448 22.4743 -0.00700296 -0.0193157 0.00868829 3
213 1 2.06087 -7.76111 22.6208 0.00364378 -0.0372791 -0.00552689 3
203 1 1.19433 -6.79057 23.3168 0.0187279 -0.0106656 -0.00499386 3
135 1 -6.81047 -1.71176 22.3489 -0.00672457 -0.00900427 0.00378518 3
146 1 -5.01206 -5.90888 22.4696 0.00583992 -0.0397055 0.0163706 3
147 1 -5.65101 -4.51326 22.348 0.00609708 -0.0376926 0.0269728 3
163 1 -3.57054 -6.5448 22.7644 0.00723514 -0.0428744 -0.0224455 3
148 1 -4.75226 -3.55443 22.7865 0.00471689 -0.0016507 0.0181678 3
149 1 -5.3105 -1.96254 22.7324 0.00347094 -0.00640118 0.00986845 3
150 1 -5.12076 -0.462383 22.6734 0.0211752 -0.00413467 0.0185423 2
164 1 -3.30549 -4.05226 23.4928 0.00139405 -0.00540603 0.00830992 3
174 1 -2.70663 -5.55272 23.4067 0.0163613 -0.0123327 -0.021967 3
187 1 -1.45646 -6.12151 23.9674 -0.00250638 0.0139112 -0.00834255 2
243 1 5.77707 -5.93548 22.117 -0.00383364 0.00765952 0.00688849 3
254 1 6.69379 -4.85948 22.2559 0.00196241 -0.0280557 0.0198894 3
226 1 4.17674 -6.13516 22.4648 0.00554822 -0.0300837 0.0120393 3
255 1 6.76805 -2.31946 22.9102 -0.00082896 0.00115702 0.0349061 3
244 1 6.03456 -3.72417 22.8862 -0.00154763 -0.00044791 0.0123986 3
227 1 3.55027 -5.20647 23.2583 0.0157459 -0.0281246 0.0110293 3
228 1 4.53361 -3.85745 23.5771 -0.0238727 -0.0169914 0.0127293 3
245 1 6.43137 -1.15508 23.7364 0.0160648 0.00400058 0.0221371 3
229 1 4.41183 -2.526 24.4168 -0.000821223 -0.0333395 0.0155065 3
214 1 2.26698 -5.7937 23.4716 -0.00593141 -0.0359586 0.0239224 2
230 1 5.47751 -1.56912 24.6872 -0.00754505 -0.0026336 0.019061 3
204 1 2.84849 -3.37812 27.8258 0.00827417 0.00470803 0.0451639 3
231 1 5.20295 -0.648749 26.0328 -0.00327249 0.00319918 0.0377466 2
269 1 8.18499 -2.10629 22.3611 0.00224746 -0.0110409 0.0263463 3
270 1 8.693 -0.759573 22.206 -0.00197693 0.00477857 0.0240127 3
126 1 -7.53547 2.1655 22.2745 -0.00751848 0.00311828 0.0204132 3
137 1 -6.91051 3.46673 22.2576 0.00358028 0.0195302 0.0245117 3
155 1 -5.56074 6.00884 22.3826 -0.00860304 -0.00457648 0.00932798 3
136 1 -6.84815 0.895197 22.5122 0.020919 0.0140669 -0.0133163 3
178 1 -2.5442 6.23821 22.9049 -0.00467091 0.0158463 0.00892099 3
151 1 -5.38892 0.96949 22.8361 0.0224487 -0.00678601 0.0135209 3
153 1 -5.58904 3.53676 22.9129 -0.0170891 -0.0037711 0.0173377 3
154 1 -4.98927 4.7678 22.9218 -0.0474088 0.0140467 -0.010441 3
152 1 -4.78133 2.33142 23.2509 -0.00307028 -0.00353413 0.0227181 3
167 1 -3.63621 5.27565 23.3915 -0.0215879 0.011407 -0.00605428 3
195 1 -1.11016 6.26731 23.5152 -0.0153627 0.0105887 0.0205566 3
194 1 -1.17475 5.35205 24.7917 -0.0262016 0.00831672 0.0213198 2
177 1 -3.76097 5.64001 24.8489 -0.0297098 -0.00588096 0.00774807 2
193 1 -2.47754 6.01027 25.4304 -0.0338534 -0.0328562 0.012517 2
216 1 4.45206 -0.103323 27.5931 -0.0199618 -0.0353146 0.035982 3
247 1 6.07758 4.52262 22.9072 0.0198459 0.0192318 0.0326116 3
257 1 6.68199 2.92488 22.8334 0.0187759 0.0131268 0.000747539 3
235 1 3.90614 6.18441 22.6548 -0.00103876 0.00619767 0.014468 3
256 1 6.7602 0.338887 23.4032 -0.0133822 0.00235669 0.0219365 3
218 1 2.54713 6.23787 23.2235 0.00649296 0.0371299 0.0285042 3
234 1 4.92671 5.36729 23.37 0.0145009 0.0117762 0.00665864 3
246 1 6.12275 1.68438 23.2295 -0.00432824 0.000387493 0.00922936 3
207 1 2.464 5.10603 24.5989 0.00196831 0.00444461 0.0159935 3
232 1 5.74993 0.705278 25.6806 0.00426027 -0.00109288 0.0627269 1
233 1 4.74232 5.7852 24.7896 0.0211581 0.00837845 0.0184223 2
206 1 3.52565 0.999173 28.2749 -0.0109962 -0.0196036 0.0497609 3
217 1 3.6014 5.41281 25.6225 0.0280957 0.0286973 0.002934 2
273 1 8.06324 2.93968 22.338 0.0329809 -0.00434667 0.0227328 3
271 1 8.06112 0.499425 22.8058 -0.0249033 -0.00203454 0.0272725 3
168 1 -3.22105 7.5375 22.5217 -0.00706892 0.0131421 0.0146998 3
197 1 -0.776804 8.62434 22.1285 -0.0144459 -0.00319705 0.00521358 3
196 1 -0.00340543 7.42942 22.9798 0.0106404 0.00155216 -0.0136518 3
219 1 2.11349 8.60036 22.0913 0.0178846 -0.0159126 -0.000298992 3
236 1 4.56664 7.44173 22.3271 -0.00761567 0.0055263 0.00677008 3
208 1 1.59179 7.36822 22.8113 -0.00135621 0.00429984 -0.00153277 3
165 1 -0.228159 -0.787418 31.1291 0.0435502 -0.00656156 0.0648988 2
215 1 3.81017 -2.57705 28.8141 -0.00810455 -0.00484844 0.0380618 2
175 1 0.716687 -2.08839 31.1355 0.0555801 -0.0193243 0.0994283 2
188 1 2.23343 -3.38498 29.2872 0.0265529 0.00793848 0.0227426 2
205 1 4.03437 -1.05777 29.0262 0.0485618 -0.0108961 0.0303994 3
189 1 1.70736 -2.16826 30.1108 0.0702841 0.0201964 0.034869 3
190 1 2.60225 -0.887789 29.7516 0.0320603 0.00685607 0.0674961 3
166 1 -0.220339 1.36286 29.5494 0.0290336 -0.0233034 0.0276378 2
176 1 0.474118 0.270073 30.3863 0.0103903 0.0245659 0.0305171 3
191 1 1.97554 0.152366 30.4341 0.0216074 -0.00937334 0.0238403 3
192 1 2.94654 1.11998 29.8981 0.00550079 0.0144193 0.0113073 2
