ITEM: TIMESTEP
38700
ITEM: NUMBER OF ATOMS
168
ITEM: BOX BOUNDS pp pp pp
-1.4715758017245314e+01 1.5057610017245315e+01
-1.2710055654020760e+01 1.2664508654020761e+01
-5.0001035148846022e+01 1.0000103514884636e+02
ITEM: ATOMS id type x y z vx vy vz c_coord
92 1 -10.8944 -9.20821 19.9174 0.00970988 0.0204251 0.00724281 3
93 1 -10.8621 -6.76753 19.6386 -0.00524592 0.00259102 -0.00232884 3
103 1 -9.44862 -9.27627 19.9893 0.0196502 -0.00480389 0.0496016 3
104 1 -8.90484 -8.0126 19.6706 0.00553452 -0.00157193 0.000687859 3
105 1 -9.3872 -6.70198 19.2765 0.00899362 -0.0013511 -0.00679478 3
122 1 -7.44808 -8.00605 19.225 -0.00397793 -0.00102548 -0.0198055 3
132 1 -6.7565 -9.15752 19.5927 0.000690541 0.0136879 0.00139775 3
143 1 -5.3723 -9.28705 20.0161 0.00662922 9.86429e-05 -0.0104875 3
172 1 -2.33368 -9.35003 20.3492 0.00736107 0.0115482 -0.012943 3
183 1 -0.862578 -9.28911 20.6215 -0.0129855 -0.000181458 -0.00511546 3
162 1 -3.23914 -8.43996 20.8375 -0.0108429 -3.51382e-05 -0.00237262 3
144 1 -4.7601 -8.05124 20.3426 0.0187266 -0.00631516 -0.00292639 3
133 1 -6.68438 -6.80026 19.531 -0.00702551 -0.0136226 -0.00669999 3
145 1 -5.40889 -6.7977 20.1823 -0.00701393 -0.0247426 -0.0155705 3
173 1 -2.81604 -7.35691 21.626 0.00603519 -0.00826359 -0.00533869 3
184 1 -0.170292 -8.04502 20.9676 -0.0344028 0.00722835 -0.00532289 3
185 1 -1.29689 -7.32495 21.8142 0.0106685 -0.00418857 -0.0213501 3
212 1 2.10723 -9.17372 20.1976 -0.0152849 -0.00593362 -0.0196769 3
223 1 3.45201 -9.21626 20.2486 -0.0119285 0.0138615 0.000125154 3
224 1 4.22523 -7.82216 20.5039 -0.0194896 -0.0126542 -0.0107921 3
242 1 5.47491 -7.62663 19.7932 -0.0292519 -0.00198032 -0.0153099 3
252 1 6.28819 -9.03311 19.5475 -0.000243203 -0.00579242 -0.0193274 3
202 1 1.3604 -7.85012 20.7327 -0.036686 -0.0150094 -0.0218476 3
225 1 3.67224 -6.44217 21.035 -0.0334222 -0.0117058 0.00664302 3
213 1 2.25712 -6.5269 20.8113 0.00374251 -0.00700619 -0.00761019 2
263 1 7.706 -9.05818 19.6425 -0.00566378 0.00930855 0.00227097 3
264 1 8.35654 -7.6412 19.6355 0.000621941 -0.00828332 -0.0143922 3
282 1 9.74776 -7.98733 20.0323 0.00184896 -0.00978007 0.00155625 3
292 1 10.4862 -9.25575 20.3275 -0.0161816 0.00167611 0.00405956 3
293 1 10.4308 -6.8047 19.5937 0.0025774 0.00434804 0.0175802 3
94 1 -10.8691 -4.33357 20.0523 0.013797 0.0079282 0.0033897 3
95 1 -10.8696 -1.80718 20.17 0.00118484 0.0127255 -0.0182774 3
106 1 -8.58073 -5.33478 19.3323 0.000606957 0.0029727 0.0132671 3
107 1 -9.2842 -4.15767 20.0163 0.02144 -2.42412e-05 -0.0214812 3
109 1 -9.40689 -1.60856 20.6808 -0.00212272 0.00872666 -0.0220842 3
110 1 -8.78429 -0.428576 21.1878 -0.00845829 0.0115204 -0.0135597 3
108 1 -8.67324 -2.86986 20.2816 -0.00550807 0.0120095 -0.0159595 3
125 1 -7.50296 -0.44773 21.882 -0.0148759 0.0176422 0.00120748 3
124 1 -7.26953 -2.94709 20.8315 -0.00979101 0.0294848 -0.0242163 3
123 1 -7.14329 -5.41289 19.8001 -0.0062623 0.0132994 -0.00675435 3
146 1 -5.03677 -5.71965 20.9374 0.00898145 -0.00192858 -0.00884286 3
134 1 -6.57791 -4.14288 20.602 -0.0306438 0.00417872 -0.0219659 3
147 1 -5.42716 -4.36927 21.6479 0.00812982 -0.0260992 -0.00512191 2
135 1 -6.76462 -1.64444 21.6095 -0.00742869 -0.000808925 -0.0203063 3
163 1 -3.94125 -6.27258 21.786 0.0164477 0.00445367 0.00604831 3
253 1 6.30025 -6.30937 19.6651 -0.0192554 -0.00336636 -0.0281002 3
226 1 4.55723 -5.09902 21.3011 -0.0148481 -0.011 -0.0361603 3
243 1 5.83667 -5.10098 20.7083 -0.0248957 0.00967589 -0.0351576 3
254 1 6.50059 -3.89189 21.1488 -0.00465342 0.0129064 -0.0075972 3
203 1 1.54173 -4.91104 21.1887 -0.0201164 0.0023089 -0.011791 1
265 1 7.61851 -6.31195 19.2041 0.00461314 -0.00727491 0.0162577 3
283 1 9.71988 -5.39743 19.3186 -0.00774919 0.00420537 0.00555748 3
284 1 9.78359 -2.93789 20.2136 -0.0142372 0.0318059 0.00632173 3
285 1 9.8973 -0.450295 21.0604 -0.00350479 0.00229252 0.0167121 3
294 1 10.4723 -4.2096 19.5772 -0.00168143 0.00189039 0.0137955 3
295 1 10.5958 -1.80134 20.6287 0.0225135 0.000104628 0.00135031 3
268 1 8.38723 -2.71042 20.6647 -0.0318046 -0.0024068 -0.0142602 3
270 1 8.57182 -0.425367 21.7264 -0.0102423 -0.0181091 -0.0305735 3
266 1 8.25428 -4.93263 19.3238 -0.0128365 0.00954678 -0.0281848 3
267 1 7.61344 -3.88942 20.3099 -0.00328843 0.00696864 -0.0276186 3
269 1 7.62799 -1.64529 21.5722 -0.0198476 0.00857601 -0.0325287 3
96 1 -10.7614 0.569523 20.1821 -0.0276304 0.0149592 -0.0035357 3
97 1 -10.8648 3.03857 20.2412 0.033786 -0.0132701 -0.0123463 3
98 1 -10.8113 5.46558 19.9629 -0.0031055 -0.0104632 -0.0103619 3
111 1 -9.42984 0.806749 20.5776 -0.0102421 -0.00577146 -0.0113294 3
113 1 -9.42225 3.18242 20.2449 -0.00771745 0.00791096 -0.0177727 3
115 1 -9.43528 5.61851 19.5002 -0.0257232 0.00473513 -0.0216432 3
112 1 -8.84661 2.07073 20.9274 -0.0155729 -0.00465097 -0.0383303 3
114 1 -8.73943 4.4501 19.9127 -0.00221195 -0.0141364 -0.0298978 3
126 1 -7.70117 2.24277 21.7951 -0.0310017 0.017243 -0.0309515 3
127 1 -7.25928 4.21412 20.0097 -0.000150439 -0.013561 -0.037727 3
138 1 -6.41608 5.33295 19.5855 0.00934725 -0.0125192 -0.00931523 3
155 1 -5.30644 5.7332 20.3727 0.0172553 0.0102812 -0.0204403 3
137 1 -6.98722 3.34523 21.168 -0.0168896 0.00839312 -0.0257112 3
154 1 -4.81299 4.75892 21.5175 0.00943388 0.00206527 -0.0240514 3
153 1 -5.46187 3.53373 21.5283 0.00594841 0.0161455 -0.0435604 3
258 1 6.21175 5.47582 20.2484 -0.00508519 0.0204245 -0.0129443 3
247 1 6.05307 4.69622 21.4236 0.00180556 0.00328398 -0.0243823 3
257 1 6.56005 3.21277 21.3199 -0.012349 0.0236019 -0.0288523 3
275 1 7.67751 5.42956 19.7255 0.00263113 -0.0106248 -0.00219698 3
286 1 9.86845 1.85604 20.6709 0.0109667 -0.0250642 0.0175849 3
287 1 10.0211 4.16857 19.6372 0.00073147 0.0108366 0.00164205 3
296 1 10.5791 0.67156 20.549 0.0120946 0.0154131 0.00454684 3
297 1 10.4537 3.04591 20.16 0.00605677 -0.00840862 -0.0170561 3
298 1 10.5337 5.54118 19.9691 -0.00504337 -0.00227935 0.0137372 3
274 1 8.61554 4.3173 19.5668 0.000621845 0.00184103 -0.0095803 3
272 1 8.49765 2.1469 21.0307 -0.00585223 -0.0159929 -0.0265653 3
273 1 7.8141 3.23507 20.4157 0.00665578 -0.0208234 -0.00996295 3
271 1 7.77702 0.852344 21.7559 -0.027927 0.00973738 -0.0137245 3
99 1 -10.7468 8.01183 19.8049 0.000642066 -0.0164142 0.0436808 3
116 1 -8.65328 6.67871 19.4571 0.0097258 0.00512016 0.000321361 3
117 1 -9.38541 8.07236 19.4599 0.00720461 -0.0120381 0.00217926 3
118 1 -8.71844 9.29605 19.6764 -0.0104129 -0.0028596 0.013433 3
129 1 -7.33722 9.16918 19.654 -0.0174859 0.0258529 0.000619521 3
128 1 -7.19486 6.60688 19.3847 -0.00749703 -0.00614114 0.0229297 3
139 1 -6.59804 7.82951 19.665 0.00212994 -0.00203988 -0.0400185 3
158 1 -4.54091 9.26886 20.2682 0.00701447 0.0117956 -0.019314 3
169 1 -3.16584 9.33341 20.333 0.00151635 0.0181523 -0.0110353 3
198 1 -0.14566 9.24794 20.6003 -0.000732789 0.0229304 -0.00763222 3
197 1 -1.05595 8.03257 20.7008 0.0283641 -0.0209074 -0.00789277 3
179 1 -2.42295 8.14829 20.8766 -0.00250437 0.00222142 -0.00492494 3
157 1 -5.27292 8.03939 20.1183 -0.0171715 0.0286129 -0.039702 3
156 1 -4.67931 6.90922 20.6291 0.000396915 0.0114322 -0.00678832 3
196 1 -0.0488549 6.94901 21.0757 0.0195125 -0.00893707 -0.0131969 2
168 1 -3.46456 7.21537 21.5219 -0.0341353 0.0162254 -0.00920713 3
209 1 1.14939 9.02446 20.4545 0.0130385 0.00139296 0.00810509 3
238 1 4.10232 9.0505 20.0972 -0.0177334 -0.0177366 0.00794044 3
249 1 5.50641 9.07141 19.7625 -0.0110975 0.00655021 -0.0292395 3
259 1 6.09201 7.7732 19.4299 0.0103147 0.0189259 -0.00588669 3
237 1 3.68188 8.08922 21.0264 0.000843942 0.00331636 -0.0118492 3
219 1 2.1187 8.06654 20.7458 0.0198676 -0.013953 -0.0195655 3
248 1 5.45327 6.73049 20.1716 -0.001363 -0.00363124 -0.0123789 3
236 1 4.87669 7.3037 21.469 -0.00461985 0.00191756 -0.0260356 3
208 1 1.39531 6.70472 21.0012 -0.00812977 -0.0176573 0.00352056 2
277 1 7.57109 8.04742 19.4945 0.0045166 -0.00996189 0.00945161 3
278 1 8.30637 9.19341 19.8667 -0.00794453 0.00352213 -0.00533632 3
288 1 9.74524 6.70616 19.8676 0.013753 -0.0132135 0.0252704 3
289 1 9.78147 9.19609 19.9698 -0.0074578 0.00136061 0.00134073 3
299 1 10.492 8.01572 19.8867 -0.0075276 -0.0164086 0.00324139 3
276 1 8.30551 6.73571 19.5807 -0.0104755 -0.00785483 0.00652488 3
186 1 -0.77314 -6.4914 22.9498 -0.0073957 0.000901001 0.0141334 2
148 1 -5.12862 -3.00228 22.8628 0.00853518 0.00301196 0.0107018 2
149 1 -5.6063 -1.43916 22.419 0.0121521 -0.0136158 -0.0315122 3
150 1 -5.05501 -0.19891 22.8688 0.0177137 0.00535683 -0.0653415 2
164 1 -4.8815 -2.3004 24.1733 0.0162055 0.034433 -0.0223139 2
174 1 -3.49043 -5.79399 23.0811 -0.038152 -0.0115291 -0.0304145 2
187 1 -2.02771 -5.99692 23.5239 0.0322394 -0.0306797 0.0101547 2
244 1 5.89145 -2.97521 22.1306 -0.0298761 0.0070209 -0.00425299 3
227 1 3.88369 -4.01995 22.2386 -0.00649852 0.0238239 -0.0144255 3
228 1 4.55515 -2.88296 22.7684 -0.00944782 -0.00394091 0.0102427 3
229 1 4.39091 -1.97379 23.873 -0.0236771 0.0133468 -0.0348989 2
214 1 2.49345 -4.35831 22.2402 0.00200356 -0.0187009 -0.0130896 2
230 1 5.05018 -0.770345 24.2834 -0.0214954 -0.00381107 -0.050707 3
231 1 5.22792 -0.381188 25.6868 -0.0170349 -0.0223388 -0.0705374 2
245 1 6.13435 -0.531554 23.1569 -0.00952861 0.0222655 -0.0345852 3
255 1 6.57647 -1.75616 22.4427 -0.0320448 -0.00913986 -0.0159957 3
232 1 5.12616 -0.408627 26.8843 -0.0577471 -0.0375187 -0.00343838 1
136 1 -7.03544 0.998428 22.2747 -0.0176534 -0.00312553 -0.0157625 3
151 1 -5.60487 1.20864 22.5307 0.00835827 -0.0101261 -0.0545688 3
152 1 -4.81167 2.45043 22.3469 0.0109534 0.00978851 -0.050973 2
167 1 -3.82789 5.07075 22.5007 0.00631806 -0.0281354 -0.0220482 3
177 1 -3.75053 4.67982 23.9686 0.0294157 -0.00534431 -0.00455116 2
193 1 -3.3844 4.54278 25.3593 -0.0451665 0.0123616 -0.0171801 2
194 1 -2.83334 6.0469 25.4727 0.0131079 -0.0104288 0.00398454 2
234 1 5.69958 5.47942 22.6809 -1.86542e-05 -0.0159308 -0.0282499 3
233 1 6.14098 5.2167 24.1793 0.0270598 -0.0233475 -0.00890874 2
217 1 6.31517 5.4157 25.5215 0.00869497 0.000406448 -0.00508722 2
246 1 5.95018 2.13316 22.0816 -0.00285512 0.00489424 -0.0474267 2
256 1 6.65891 0.741824 22.6309 -0.0344806 0.0184988 -0.0155049 3
178 1 -3.15347 6.34232 22.6453 -0.0175857 0.000575413 -0.00375852 3
195 1 -2.75364 6.56634 24.1524 0.0330377 -0.00323955 -0.0147816 2
235 1 5.50411 6.83988 22.7118 -0.0179209 -0.00558918 -0.0197484 3
207 1 6.00813 7.00237 25.4286 0.0333772 -0.0269911 -0.0101622 2
218 1 5.30209 7.27731 24.1714 -0.00364832 -0.00779758 -0.0291906 2
204 1 4.27785 -3.21449 32.4917 -0.00428779 -0.0227369 0.018759 2
215 1 6.34587 -1.86921 32.4576 0.0371344 0.000857238 0.0163102 2
188 1 5.43485 -2.50318 33.4763 -0.0188819 -0.00595187 0.0106445 2
205 1 6.61862 -0.540442 32.9939 0.0217272 -0.0334738 0.00713811 3
216 1 5.48608 0.488893 32.7051 -0.0299173 -0.0142095 0.0225452 3
206 1 5.13504 1.54371 33.1677 -0.00363725 0.0303511 0.0129989 3
190 1 6.31506 -0.501673 34.447 0.0162588 -0.00285665 -0.000893334 3
189 1 5.76922 -1.691 35.11 0.00891317 0.0296314 0.0268821 2
165 1 5.54023 -1.14349 37.4585 -0.00557136 -0.0233689 -0.0171848 2
175 1 5.49187 -2.0154 36.2625 0.0232356 -0.0218662 0.0109714 2
192 1 5.34026 1.40163 34.5463 0.0506721 0.0356374 0.00504643 2
176 1 5.477 0.253681 36.8509 0.0155715 0.00208211 -0.00131237 3
166 1 4.07464 0.918113 37.2484 0.0169014 -0.00261062 0.0199498 2
191 1 5.94124 0.465582 35.3727 0.037267 0.0137989 0.0203363 3
