ITEM: TIMESTEP
45500
ITEM: NUMBER OF ATOMS
168
ITEM: BOX BOUNDS pp pp pp
-1.4715758017245314e+01 1.5057610017245315e+01
-1.2710055654020760e+01 1.2664508654020761e+01
-5.0001035148846022e+01 1.0000103514884636e+02
ITEM: ATOMS id type x y z vx vy vz c_coord
92 1 -10.8998 -9.20462 19.5424 -0.018327 0.00299186 0.00839194 3
93 1 -11.0027 -6.73444 20.2895 0.00249463 0.00775332 -0.00209579 3
103 1 -9.50068 -9.22689 19.7898 -0.0376677 -0.0243702 0.0142058 3
104 1 -8.7397 -8.06884 20.0637 0.0336991 0.0168715 0.00344329 3
105 1 -9.46262 -6.86206 20.116 0.00619917 -0.00176975 -0.00528586 3
122 1 -7.29572 -8.14528 19.8722 0.00520703 0.00501702 -0.00059292 3
132 1 -6.60405 -9.2127 19.9529 0.0125161 -0.0104418 0.0200754 3
143 1 -5.19729 -9.12941 19.8717 0.000890486 0.0130657 0.0152648 3
172 1 -2.31385 -9.12675 19.8207 0.0147933 -0.0259451 0.00185741 3
183 1 -0.973456 -9.29762 20.1618 -0.00771891 0.00588561 0.00719664 3
162 1 -2.95805 -7.80735 19.6517 -0.0331295 0.00640316 -0.0293401 3
144 1 -4.52154 -7.85078 19.5895 -0.0321846 -0.0117947 0.00787604 3
133 1 -6.4926 -6.89363 20.0518 0.0168943 0.0209611 0.0207886 3
145 1 -5.11267 -6.66775 20.0182 0.0115137 -0.00516533 0.000922696 3
173 1 -2.37225 -6.7295 20.5677 0.028335 -0.0178298 -0.024657 3
184 1 -0.179148 -8.29059 20.6344 0.0142032 -0.0303704 -0.00798416 3
185 1 -1.33333 -7.4649 21.0085 0.000299503 0.0124048 -0.00820253 3
212 1 1.94442 -9.26932 19.8789 -0.0134763 -0.0112595 0.00947249 3
223 1 3.28176 -9.25103 19.6975 -0.0102015 0.0185388 0.00939371 3
224 1 4.06189 -7.95619 19.7752 -0.00022037 0.00525083 0.00468428 3
242 1 5.51184 -8.03389 20.0155 0.0235523 -0.00673889 -0.00627813 3
252 1 6.12614 -9.32062 20.0864 -0.0201467 -0.0164204 0.00193365 3
202 1 1.28437 -8.0493 20.556 0.000832861 0.00653125 -0.0215859 3
225 1 3.17142 -6.85129 19.7717 0.0217593 0.00946602 0.00493449 3
213 1 1.72928 -6.88791 20.1821 -0.00372674 -0.00602204 0.00973184 3
253 1 6.33641 -6.93234 20.3385 0.0169306 0.0250086 0.0257328 3
265 1 7.58589 -7.04416 20.7157 0.00171941 -0.00376707 0.00857433 3
263 1 7.63484 -9.3085 20.2541 -0.0143303 -0.0237352 0.00169415 3
264 1 8.28275 -8.11971 20.155 0.00034498 0.00757911 0.021125 3
282 1 9.68252 -7.91339 20.0608 -0.0109024 0.0088387 0.0219345 3
292 1 10.4771 -9.11239 19.9124 -0.00935377 0.00437778 0.0203043 3
293 1 10.5842 -6.8754 20.2855 0.0125934 0.00492398 0.0164236 3
94 1 -10.7669 -4.33729 20.074 0.0188646 0.0043049 0.0164962 3
95 1 -10.8449 -1.85076 19.9266 -0.00935098 0.00696454 0.00650375 3
106 1 -8.68129 -5.66944 19.9091 0.0217813 0.00443458 0.0174029 3
107 1 -9.33638 -4.46364 19.8307 -0.0016393 0.0025673 0.00135667 3
109 1 -9.3113 -1.97199 19.9179 0.0125819 -0.0144555 0.01106 3
110 1 -8.57309 -0.816303 19.7231 0.000848654 0.00220588 -0.0353362 3
108 1 -8.65418 -3.35167 20.0905 0.0178146 -0.0144713 0.0141252 3
124 1 -7.19407 -3.13481 20.1293 0.0267716 -0.0109566 -0.0133309 3
125 1 -7.1159 -0.826011 19.7141 0.0142062 0.0290432 -0.038531 3
123 1 -7.16717 -5.62574 19.7865 -0.0133505 0.00488336 0.00709503 3
146 1 -4.47228 -5.4469 20.7605 0.000843383 0.0132339 -0.0128325 3
134 1 -6.43784 -4.37692 20.0722 0.00123261 -0.0054332 0.0244861 3
147 1 -5.14867 -4.22344 20.7588 0.0148112 0.00264174 -0.00279745 2
135 1 -6.46204 -1.87083 20.4595 0.0132605 0.0153842 -0.0486551 3
163 1 -3.30783 -6.05964 21.6154 0.00143524 0.00139062 0.00159751 3
149 1 -4.71296 -0.804235 21.8441 0.0425442 0.0201005 0.0467192 2
150 1 -5.11661 -1.1349 20.2948 -0.00431248 0.0355095 0.0132516 3
226 1 3.84768 -5.57056 20.0387 0.0101428 -0.00212886 -0.0181337 3
243 1 5.52685 -5.69264 20.0089 0.0199308 0.00285455 0.00947426 3
254 1 6.17466 -4.55921 20.0488 0.0110747 -0.0241143 0.0147134 3
203 1 1.17499 -6.02921 21.2712 0.00754738 -0.0132193 -0.0126302 2
244 1 5.09054 -3.45861 19.4887 0.0121215 -0.0277059 0.0229009 3
227 1 2.96819 -4.55945 20.208 -0.0139027 0.0102212 -0.0433674 3
214 1 1.68752 -4.67985 21.0788 0.0193789 0.00568377 -0.0246869 2
255 1 6.14717 -2.34883 19.6303 0.028219 -0.0269387 -0.0470382 3
228 1 4.07 -3.36551 20.6234 -0.00248175 -0.00898615 -0.011226 3
245 1 5.5968 -1.17795 20.0772 -0.00729156 -0.0136356 -0.0644007 2
229 1 3.68325 -2.67377 21.8761 -0.0355059 -0.0316052 -0.0305946 2
269 1 7.70396 -2.14045 20.1494 -0.00723543 0.000532329 -0.0118821 3
267 1 7.6187 -4.56525 20.5705 -0.00710811 -0.0170493 0.00493821 3
283 1 9.82909 -5.76379 20.3592 0.00296681 0.00446014 -0.0190561 3
284 1 9.89566 -3.38531 20.0912 0.0185083 0.0203654 -0.0124317 3
285 1 9.78248 -0.752661 19.725 0.0144195 0.00484195 -0.0111453 3
294 1 10.6787 -4.52184 20.2434 -0.00593013 0.0191389 0.000318517 3
295 1 10.4393 -2.08989 19.8329 -0.00570714 0.0260064 -0.00612183 3
268 1 8.48787 -3.38702 20.4292 0.0106239 -0.0193782 0.00241393 3
270 1 8.2928 -0.874994 19.9416 -0.017962 -0.00971901 -0.0615371 3
266 1 8.34497 -5.7956 20.7449 -0.00110559 0.00406729 -0.0110985 3
96 1 -10.7204 0.597834 19.9961 0.000582261 -0.0145407 -0.0102601 3
97 1 -10.8865 3.12378 19.9704 -0.00281082 -0.00422741 0.0144021 3
98 1 -10.7475 5.47553 20.0098 -0.0110329 0.0226537 0.00568932 3
111 1 -9.26299 0.604823 19.4461 0.00807832 -0.0226395 -0.0301603 3
113 1 -9.60202 3.25424 19.432 0.0140545 -0.00130461 0.0363418 3
115 1 -9.50995 5.8313 19.6288 0.0210008 -0.0179206 0.00936282 3
112 1 -8.76259 1.85835 19.0872 0.00604932 -0.0122751 -0.0300845 3
114 1 -8.93817 4.54533 19.2555 0.00413363 0.00774718 0.0160391 3
126 1 -7.31898 1.66241 19.0397 -0.00267482 -0.0276764 -0.033775 3
127 1 -7.50415 4.38599 19.3581 -0.00593718 -0.0228354 -0.0236433 3
138 1 -6.7694 5.45211 19.5065 0.0189373 0.00161239 -0.0066622 3
155 1 -5.41001 5.64595 19.7776 0.00937706 -0.034693 -0.0384523 3
137 1 -6.80369 2.97887 19.3127 0.000683903 -0.0246941 -0.000874579 3
154 1 -5.09526 4.42032 20.4034 0.00176988 -0.0277502 -0.010384 3
153 1 -5.40017 3.01514 19.603 -0.0015182 -0.00625366 -0.0510663 3
136 1 -6.48519 0.303416 19.0533 0.0231326 -0.0131719 -0.0360395 3
151 1 -5.01587 0.326633 19.2733 0.0294656 -0.0245557 -0.0184642 3
152 1 -4.63755 1.70748 19.4622 -0.00905062 -0.000392968 -0.0210851 2
167 1 -4.1149 4.74012 21.3382 0.00966945 -0.0175285 -0.0308047 3
178 1 -3.0492 5.84713 21.1951 -0.00850236 -0.013375 -0.0518992 3
258 1 6.32785 5.3353 19.7423 -0.0222066 0.0101163 -0.0046217 3
247 1 5.49707 4.18456 20.0859 -0.00120376 0.00782872 0.002409 3
257 1 6.23561 2.92475 20.0362 -0.00431352 0.0197563 -0.0154168 3
246 1 5.53596 1.63766 20.2709 -0.00494397 -0.00860092 -0.0227647 2
256 1 6.20071 0.319962 20.2139 0.00505186 -0.0183466 -0.0309405 3
234 1 5.2053 4.55892 21.4285 -0.00707306 -0.0146285 -0.0139367 3
235 1 4.74347 5.83993 21.6024 -0.0115296 -0.0205515 -0.00605106 3
271 1 7.52487 0.473056 19.9994 0.0112031 -0.0276488 -0.0245748 3
273 1 7.75749 3.09019 20.2493 0.00321469 -0.0104166 0.00550841 3
275 1 7.89098 5.58908 20.0613 8.09759e-05 -0.00146348 -0.000167241 3
286 1 9.78487 1.77193 20.1316 0.0334409 0.00156143 -0.00601053 3
287 1 9.88552 4.31545 20.2049 0.00157894 -0.0014173 0.000486141 3
296 1 10.4733 0.560552 19.6204 0.0238047 -0.00399215 -0.000962325 3
297 1 10.4409 3.1286 20.1704 0.0156783 -0.0137245 -0.0223544 3
298 1 10.5089 5.66335 20.0905 -0.00490289 -0.00845085 0.00267809 3
274 1 8.44832 4.41596 20.0872 0.00988403 -0.00908344 0.00844158 3
272 1 8.37633 1.79305 19.9977 0.00321693 -0.0192191 -0.0243226 3
99 1 -10.8368 7.95078 19.9168 -0.0122809 -0.0121887 -0.000989821 3
116 1 -8.68506 7.06776 19.5568 -0.00904159 -0.00397536 -0.0112373 3
117 1 -9.41756 8.19546 19.8025 -0.0266446 0.0107404 -0.0277221 3
118 1 -8.70858 9.27743 20.0262 0.0134222 -0.00815048 -0.00597313 3
128 1 -7.37844 6.83101 19.4453 -0.00326576 -0.0161132 0.0181295 3
129 1 -7.33175 9.2955 19.9306 -0.0200777 0.0187486 0.019083 3
139 1 -6.68145 8.15384 19.4372 -0.0155061 0.0132587 0.00799673 3
158 1 -4.45382 9.26696 19.5555 0.000712949 0.00040667 0.0120494 3
169 1 -2.98541 9.19873 19.6821 0.0090483 -0.00737977 0.0139199 3
198 1 -0.180714 9.21382 20.2839 0.0155515 0.000768937 -0.000968388 3
197 1 -0.985012 8.07334 20.4681 0.00498177 -0.0157189 -0.00577935 3
179 1 -2.36945 7.9274 20.027 -0.00880033 -0.0199446 -0.0286502 3
157 1 -5.32274 8.0805 19.6823 -0.00358631 0.013575 0.0147011 3
156 1 -4.65298 6.86948 19.6884 -0.0165701 -0.0100743 -0.00541904 3
168 1 -3.29687 6.76824 20.1427 0.0132295 -0.00720964 -0.0199235 3
196 1 -0.174245 6.99228 20.9743 -0.0165463 -0.00694297 -0.00562329 2
209 1 1.30877 9.08585 20.1196 0.00125667 -0.00891014 0.00222627 3
238 1 4.16571 9.29416 20.1295 0.00482156 -0.0175014 0.0191745 3
249 1 5.5854 9.23682 20.2123 0.0071753 0.00942473 0.0122689 3
259 1 6.30752 8.12422 19.9867 0.00329112 -0.00903149 -0.0145107 3
237 1 3.59803 7.96211 20.269 -0.0164256 0.0141497 -0.00848494 3
219 1 2.1011 7.88158 20.098 0.0135668 -0.0265701 -0.005134 3
248 1 5.8306 6.65623 19.5165 -0.0132454 0.000649532 0.00589461 3
236 1 4.55107 6.73582 20.3918 -0.00635462 -0.00412218 -0.040417 3
208 1 1.30473 6.84737 20.6991 -0.0196612 0.0258177 -0.00390591 2
277 1 7.68336 8.0365 19.9077 -0.00477778 -0.0116588 0.0136681 3
278 1 8.39811 9.19413 20.1258 -0.00928689 0.00116837 0.00249574 3
288 1 9.92389 6.86061 19.8246 -0.0145857 0.0149844 -0.00685597 3
289 1 9.81898 9.24203 20.2394 -0.0130337 -0.00508552 0.00316698 3
299 1 10.633 8.17223 19.7824 -0.00124177 -0.00845987 -0.0104212 3
276 1 8.53893 6.84337 19.8205 -0.00406334 -0.00754519 0.00316173 3
186 1 -1.31101 -7.43951 22.5582 0.0212254 -0.00525819 0.0171273 2
187 1 -1.80549 -6.54889 23.5507 -0.00336657 -0.00967323 -0.0248828 2
148 1 -4.36469 -0.497429 22.9127 -0.0199904 -0.0191344 -0.0127342 2
164 1 -4.29412 -0.507456 24.4818 -0.00459928 0.0229194 0.0207224 2
174 1 -3.00486 -5.75398 22.9534 -0.00512667 0.00822821 -0.0189755 2
230 1 3.32429 -2.82389 23.3354 -0.0153683 -0.0554103 0.000419395 2
231 1 3.47483 -2.10457 24.5697 0.00720545 -0.0363442 -0.0325843 2
232 1 3.41839 -1.44157 25.6362 -0.025965 0.000237552 -0.0436644 2
177 1 -4.60244 4.30807 22.6608 -0.00894288 0.0277535 -0.00433779 2
193 1 -3.87533 4.79541 23.8713 0.0177275 -0.014109 -0.00580405 2
194 1 -2.55329 5.69062 23.747 -0.01436 -0.00459887 -0.0318473 2
233 1 6.38314 4.36061 22.2256 -0.0149187 0.0164213 -0.0219173 2
217 1 7.15376 4.9961 23.0709 -0.00759028 -0.0104451 -0.0638529 1
195 1 -2.34434 6.4257 22.4595 -0.019906 -0.0276532 -0.0273481 2
207 1 6.38569 6.59198 23.5177 0.00706784 0.000842697 -0.0215128 1
218 1 5.45244 6.44459 22.6488 -0.00763546 -0.0385323 -0.021498 2
204 1 5.50018 -3.34443 33.0506 0.0173817 0.0116549 -0.00807812 3
215 1 6.61496 -2.81649 33.8827 -0.00639721 0.00363614 0.00369765 3
216 1 6.48224 -0.334782 33.9568 0.0127274 -0.016353 0.0212446 3
188 1 6.59859 -4.0941 34.2306 0.00286161 -0.0283769 0.0318455 2
205 1 7.20401 -1.44031 34.4191 0.00293804 0.000836892 0.000315758 4
189 1 7.43329 -2.09225 36.0699 -0.000589467 -0.00679041 0.0237356 3
165 1 5.39369 -0.77765 37.1419 -0.000732604 0.00680778 0.00798387 2
175 1 6.47488 -2.01745 37.249 0.0248196 0.0127824 0.0174655 2
190 1 8.07118 -0.90701 35.4946 0.0270009 0.00293459 0.0333807 3
206 1 6.09885 0.93806 34.2272 -0.029675 -0.00598316 0.0108549 3
192 1 7.11004 1.5446 35.0559 -0.00850737 -0.0213333 0.00020223 2
176 1 6.16395 0.391743 37.2627 0.0362594 0.00743809 0.000525081 3
166 1 5.49057 1.8666 37.6212 0.0114284 0.00606985 0.0117981 2
191 1 7.28752 0.293711 36.0402 0.0418992 -0.0119339 0.0153652 3
