ITEM: TIMESTEP
44600
ITEM: NUMBER OF ATOMS
168
ITEM: BOX BOUNDS pp pp pp
-1.4715758017245314e+01 1.5057610017245315e+01
-1.2710055654020760e+01 1.2664508654020761e+01
-5.0001035148846022e+01 1.0000103514884636e+02
ITEM: ATOMS id type x y z vx vy vz c_coord
92 1 -10.7845 -9.26673 19.6413 -0.00300162 0.00248734 -0.0301307 3
93 1 -10.8474 -6.81437 20.2693 -0.0182742 0.00199311 0.00514279 3
103 1 -9.32366 -9.1991 19.6378 0.00738043 0.0216848 0.0198234 3
104 1 -8.88307 -8.05902 20.0345 -0.0023901 -0.020569 0.000683689 3
105 1 -9.5148 -6.83434 20.1508 -0.00153812 0.00423632 -0.00209185 3
122 1 -7.48729 -8.07424 19.9054 0.0306229 -0.00972384 -0.00540515 3
132 1 -6.58235 -9.22926 19.7718 -0.0240503 0.0111275 0.0198159 3
143 1 -5.07098 -9.15651 19.7027 -0.0122777 -0.00718264 0.0197365 3
172 1 -2.3346 -9.14743 19.8468 -0.0245449 0.0391285 -0.0109322 3
183 1 -0.908883 -9.23271 20.1014 0.00700871 -0.0242598 0.0065539 3
162 1 -2.89484 -7.7918 19.863 0.0108184 -0.00865332 -0.0118567 3
144 1 -4.31373 -7.89544 19.6164 0.00748651 0.0103833 -0.012903 3
133 1 -6.6814 -6.93925 19.8416 0.00201222 -0.013097 0.02325 3
145 1 -5.1285 -6.69507 19.9918 -0.00199622 0.0202645 0.00578611 3
173 1 -2.55119 -6.67066 20.7203 -0.005241 0.00577219 -0.0104727 3
184 1 -0.248212 -8.13528 20.6119 0.00787749 0.00272652 0.0155431 3
185 1 -1.28205 -7.46089 21.2288 -0.00311317 -0.0127675 -0.0293055 3
212 1 1.95155 -9.14456 19.881 0.000488276 -0.00421112 -0.00726214 3
223 1 3.46947 -9.29602 19.6378 -0.00616264 -0.00825012 0.00226617 3
224 1 3.96411 -8.1061 19.7162 0.0172712 0.0236416 0.00861065 3
242 1 5.33849 -8.07213 20.0707 0.00899239 0.0183043 -0.00543386 3
252 1 6.35372 -9.15315 20.0853 -0.00453459 -0.00767063 0.000293081 3
202 1 1.19263 -8.22494 20.6306 -0.000185999 0.00437393 0.0101 3
225 1 3.11103 -6.86091 19.741 0.000462332 -0.00418932 0.00206215 3
213 1 1.7269 -6.85594 20.1607 0.0178114 0.00461217 -0.0305586 3
253 1 6.08329 -6.93303 20.0984 0.0188949 -0.025754 0.0204987 3
265 1 7.60177 -6.97263 20.571 0.00532645 -0.0111899 0.0286861 3
263 1 7.63201 -9.18932 20.1931 0.00456502 -0.00187176 0.0101473 3
264 1 8.35927 -8.05643 20.0209 -0.014755 -0.0240773 0.00855722 3
282 1 9.77336 -8.13306 19.8518 -0.00859729 0.0219335 0.0211129 3
292 1 10.5263 -9.26628 19.7685 -0.00342459 0.0281285 0.0121916 3
293 1 10.4518 -6.88702 20.1424 0.0124408 0.00192062 0.0174963 3
94 1 -10.9446 -4.35014 19.8961 0.00461965 -0.000482971 0.0216148 3
95 1 -10.8379 -1.87431 19.8841 0.0175386 -0.00726041 0.00208455 3
106 1 -8.70811 -5.73546 19.761 -0.00486652 -0.011206 0.0153114 3
107 1 -9.43525 -4.4668 19.8375 0.0151151 -0.00394854 -0.00333509 3
109 1 -9.41981 -1.88791 19.84 0.0125429 -0.0107341 0.00630216 3
110 1 -8.65236 -0.65384 19.985 0.0225902 -0.0390926 -0.0229707 3
108 1 -8.74977 -3.09709 19.9511 0.00903791 -0.0161227 0.0169914 3
125 1 -7.28369 -0.962938 20.0248 0.012012 -0.00825842 -0.0335217 3
123 1 -7.19349 -5.67268 19.7802 0.017649 0.000603441 -0.00134419 3
124 1 -7.36617 -3.09323 20.2715 0.00552079 0.0167124 -0.0174789 3
146 1 -4.52868 -5.6312 20.8416 0.0267547 0.0188107 0.00231154 3
134 1 -6.5275 -4.34621 19.8754 0.00293604 -0.00844793 0.00195794 3
147 1 -5.27058 -4.27424 20.7769 0.0256619 0.0148759 0.0104645 2
135 1 -6.63662 -1.99226 20.7844 0.0121362 0.00239582 -0.0186482 2
163 1 -3.35056 -5.99948 21.6194 0.00856151 -0.0158283 -0.0104268 3
149 1 -5.04067 -0.956055 21.5085 0.0331617 0.016489 0.0228605 2
150 1 -4.9985 -1.28284 20.1554 -0.00481613 0.000295453 0.0110324 1
226 1 3.8845 -5.66254 20.1423 -0.0126363 0.0121548 -0.00896718 3
243 1 5.32268 -5.72069 19.9844 0.0192514 -0.00583112 -0.00128073 3
254 1 6.05239 -4.36414 19.8897 0.0125484 -0.00549585 0.0155197 3
203 1 1.08188 -5.92096 21.3761 -0.000233562 -0.00451307 0.00975776 2
269 1 7.64424 -2.02314 20.1984 0.0173435 -0.0352583 -0.00314491 3
267 1 7.57685 -4.52313 20.4718 0.0235253 -0.0024905 0.0196082 3
244 1 5.11892 -3.28379 19.622 -0.0134217 -0.00984823 -0.0514269 3
227 1 3.15831 -4.47525 20.7376 -0.0285855 -0.0172066 -0.0624898 3
214 1 1.62909 -4.65562 21.2285 -0.000157267 -0.000925568 -0.0139394 2
255 1 6.05592 -2.20432 20.0342 0.000957543 -0.0271288 -0.0475764 3
228 1 3.98271 -3.37318 20.6633 0.00879645 -0.00106722 -0.00464062 3
245 1 5.55008 -1.00749 20.6779 0.00492327 -0.0231023 -0.0625612 2
283 1 9.7553 -5.72667 20.5648 0.00331624 0.00216333 -0.0230699 3
284 1 9.85892 -3.42303 20.1755 -0.00752463 -0.0147634 -0.00666481 3
285 1 9.71954 -0.838719 19.8524 0.000810318 0.00857302 -0.0197727 3
294 1 10.5308 -4.6933 20.2659 0.025293 0.00134373 -0.00219764 3
295 1 10.514 -2.16383 19.9156 -0.00331844 -0.00369531 -0.0128534 3
268 1 8.31822 -3.24318 20.4141 0.0172099 -0.00135525 0.000884408 3
270 1 8.37661 -0.755279 20.444 0.000898672 -0.0124373 -0.0431889 3
266 1 8.34936 -5.72081 20.774 0.0162728 -0.0145 0.00186734 3
96 1 -10.7917 0.66798 20.0169 0.0159192 0.00856754 0.00179011 3
97 1 -10.8672 3.07888 19.8174 -0.00376559 0.0126063 0.0224629 3
98 1 -10.876 5.4784 19.9677 0.0256963 -0.0253609 0.00514351 3
111 1 -9.40562 0.693343 19.796 0.00892229 0.00109593 -0.0422749 3
113 1 -9.56489 3.21879 19.0889 -0.00562323 0.0162151 0.0307885 3
115 1 -9.51036 5.80812 19.4773 -0.011316 0.0243302 0.0211531 3
112 1 -8.79515 1.9734 19.3935 -9.30932e-05 -0.00763424 -0.0353645 3
114 1 -8.95429 4.49728 19.178 -0.00589208 -0.00583488 0.00341945 3
126 1 -7.32419 1.85987 19.3453 0.00382088 -0.0165258 -0.0339999 3
127 1 -7.56134 4.40518 19.5141 0.0120491 0.0138088 -0.0105139 3
138 1 -6.8692 5.70639 19.5579 0.000317644 -0.0475357 -0.00591877 3
155 1 -5.54529 5.86442 20.0826 0.0172512 -0.00926848 -0.0288402 3
137 1 -6.7108 3.19791 19.3692 -0.0179707 -0.0216205 -0.0153381 3
154 1 -5.06276 4.5164 20.4144 -0.0179363 -0.00299111 -0.00586246 3
153 1 -5.39674 3.07878 20.0626 0.00234416 -0.00949987 -0.0440771 3
136 1 -6.66087 0.495241 19.4725 0.0240812 -0.0282082 -0.0542329 3
151 1 -5.39371 0.524656 19.5501 0.0387526 -0.021656 -0.0420632 2
152 1 -4.67698 1.7459 19.6689 0.0187991 -0.00770039 -0.0254888 2
167 1 -4.10522 4.93189 21.5828 0.000631543 -0.0173878 -0.0272038 3
178 1 -3.06861 6.00355 21.5794 0.0173702 -0.0173883 -0.0231852 3
258 1 6.46874 5.3926 19.7423 0.00594631 -0.0191786 0.00368967 3
247 1 5.60051 4.19794 20.1254 -0.0257692 -0.0161222 -0.0157985 3
257 1 6.32772 2.95008 20.147 0.0115447 -0.00264342 -0.0125103 3
246 1 5.43139 1.72763 20.5046 0.000672741 -0.00678085 -0.023934 2
256 1 6.23044 0.453613 20.5017 0.00737626 -0.02084 -0.0327345 3
234 1 5.34815 4.58544 21.5171 -0.0316465 -0.00283532 -0.0130369 3
235 1 4.80736 6.06283 21.7709 -0.0086491 -0.0166621 -0.0303571 3
273 1 7.6946 3.20389 20.1601 0.00385935 -0.0130608 0.0105358 3
275 1 7.79437 5.6576 20.0006 0.0108106 -0.00586569 0.00999329 3
286 1 9.68201 1.78717 20.1259 -0.00810761 -0.0099595 0.00445906 3
287 1 9.7992 4.42021 20.1845 0.012165 -0.00472282 0.00246026 3
296 1 10.3541 0.541601 19.7831 -0.00214977 0.00991909 -0.0332053 3
297 1 10.4791 3.07033 20.3112 -0.0145812 0.0182903 -0.00604357 3
298 1 10.6121 5.59164 20.0687 -0.00671273 0.0138977 0.00260806 3
274 1 8.42606 4.34768 20.0589 -0.00797212 0.00944065 5.18191e-05 3
272 1 8.21411 1.90011 20.2345 0.0205103 0.00333876 -0.0264257 3
271 1 7.61443 0.598908 20.2357 -0.0272735 -0.000769223 -0.0303898 3
99 1 -10.8031 7.99456 19.9464 -0.000410732 0.00854814 -0.00633547 3
116 1 -8.68771 6.95769 19.6469 0.00269849 0.0241189 -0.00710078 3
117 1 -9.27959 8.08013 20.0544 0.00334136 0.00893138 -0.0285966 3
118 1 -8.65923 9.32383 20.0644 -0.0276107 0.0062074 -0.000672668 3
128 1 -7.30823 6.93461 19.2889 -0.00127608 0.000153591 0.0163629 3
129 1 -7.24929 9.1559 19.7628 0.00511835 0.00294203 0.0147505 3
139 1 -6.57216 7.98322 19.3893 -0.0107291 0.0139346 0.00421018 3
158 1 -4.49437 9.24292 19.5119 0.00849002 -0.0011188 9.75467e-05 3
169 1 -3.09505 9.2181 19.6008 0.00644247 -0.00493432 0.00213162 3
198 1 -0.198846 9.25665 20.2551 0.00556089 0.00304537 0.00288751 3
197 1 -1.00003 8.10139 20.5527 -0.00582184 0.00258622 -0.0112699 3
179 1 -2.46146 8.07645 20.2474 0.01358 -0.0114079 -0.0228379 3
157 1 -5.18715 8.08555 19.503 -0.0227376 -0.0067182 0.0235704 3
156 1 -4.55814 6.88693 19.7352 -0.0129587 0.00815363 -0.011264 3
168 1 -3.20568 6.86891 20.4479 -0.0164993 -0.0103326 -0.0434785 3
196 1 0.0650492 7.00867 20.9977 -0.000584129 -0.00827903 -0.00258744 2
209 1 1.25018 9.22141 20.1034 0.00279376 -0.00787455 0.00147433 3
238 1 4.11676 9.19305 19.9942 0.00421555 0.028237 0.0121742 3
249 1 5.48878 9.18945 20.0875 -0.00339868 0.0111648 0.0173458 3
259 1 6.34573 7.95416 19.9908 -0.029288 0.0132163 0.0174788 3
237 1 3.65373 7.92578 20.3046 0.027574 -0.0151531 0.00225013 3
219 1 2.1376 8.038 20.2231 -0.0251975 -0.00181128 -0.0245889 3
248 1 5.82597 6.72157 19.7133 0.000380358 -0.0102153 -0.0383457 3
236 1 4.61959 6.88802 20.5166 0.00898716 -0.00347615 -0.00265297 3
208 1 1.3776 6.67471 20.7312 -0.0298175 0.0137853 0.00396728 2
277 1 7.74867 8.08624 19.8073 -0.00111363 0.00191376 0.00578279 3
278 1 8.48699 9.28065 20.0944 -0.00562076 -0.0141355 0.00574974 3
288 1 9.96503 6.88893 19.8758 0.0127184 -0.0085649 -0.005425 3
289 1 9.87769 9.25526 20.1664 0.00360838 -0.00100635 0.0101406 3
299 1 10.5327 8.08649 19.9084 0.0125163 0.0225525 -0.0150774 3
276 1 8.52952 6.88693 19.8204 -0.00141366 -0.00846182 -0.00170699 3
186 1 -1.48208 -7.34487 22.4784 0.012417 -0.0155573 -0.00374493 2
187 1 -1.81667 -6.47186 23.7283 -0.0102138 0.00246916 -0.0275646 2
148 1 -4.26194 -0.430878 23.0253 -0.000501756 0.00194239 0.00644024 2
164 1 -4.2085 -0.730523 24.2623 -0.0153037 0.0295075 0.0186151 2
174 1 -2.92224 -5.84115 23.1486 0.00590914 -0.00192912 -0.0198095 2
229 1 4.02895 -2.4728 22.0708 -0.0329844 -0.011652 -0.0191129 2
230 1 3.50056 -2.29583 23.2816 -0.0261949 -0.0625261 0.012605 2
231 1 3.38696 -1.79452 24.787 0.00816361 -0.0290593 -0.0075971 2
232 1 3.68013 -1.47487 26.0579 -0.028076 0.00643126 -0.046415 2
177 1 -4.46186 4.10989 22.8326 -0.0293651 0.00689563 -0.0267564 2
193 1 -3.93526 4.96397 23.8842 -0.00376491 -0.0202356 0.0087182 2
194 1 -2.54705 5.69245 23.9518 0.0154584 0.00685063 -0.0185223 2
233 1 6.50236 4.3079 22.4941 -0.010042 -0.0117328 -0.0407908 2
217 1 7.15595 5.07935 23.602 0.0175594 -0.00291882 -0.0398234 2
195 1 -2.21992 6.56867 22.7639 -0.0112978 -0.00912832 -0.0428627 2
207 1 6.42339 6.53343 23.7752 -0.0104407 0.0130867 -0.0297951 2
218 1 5.44984 6.75852 22.7652 0.00309257 -0.0283809 -0.0100042 2
204 1 5.44129 -3.57131 33.1688 0.00120161 0.0303786 -0.0167186 3
215 1 6.69791 -2.79678 33.7923 -0.0102394 -0.0111239 0.0126028 3
188 1 6.50854 -3.98467 33.9123 0.0160705 -0.000252574 0.0375568 2
216 1 6.2976 -0.262849 33.6664 0.00842301 -0.00771101 0.0269205 3
206 1 6.26232 1.11932 34.0788 0.000296305 -0.040787 0.0177184 3
205 1 7.25163 -1.36307 34.4024 -0.00588642 -0.0115386 0.013627 4
190 1 7.72355 -0.833484 35.356 0.0474983 -0.0335974 0.00205403 3
189 1 7.31602 -1.95239 35.9938 0.0101801 -0.00845017 0.00604533 3
165 1 5.40843 -0.954318 37.1044 -0.00165986 0.0181733 -0.000715777 2
175 1 6.34468 -2.14291 36.9377 0.0203054 0.0159654 0.0310049 2
192 1 7.21106 1.66342 35.1587 -0.00206869 0.00200616 -0.0121617 2
176 1 6.00496 0.430134 37.079 0.0069726 -0.00317298 0.0342965 3
166 1 5.45114 1.77849 37.5182 0.00502433 0.0115918 0.00931468 2
191 1 6.94068 0.421655 35.9801 0.0269636 -0.0140291 0.00574606 3
