ITEM: TIMESTEP
14800
ITEM: NUMBER OF ATOMS
168
ITEM: BOX BOUNDS pp pp pp
-1.4715758017245314e+01 1.5057610017245315e+01
-1.2710055654020760e+01 1.2664508654020761e+01
-5.0001035148846022e+01 1.0000103514884636e+02
ITEM: ATOMS id type x y z vx vy vz c_coord
92 1 -10.8522 -9.28897 20.0056 0.00273805 -0.00458516 0.000314108 3
93 1 -10.7276 -6.79642 20.0185 0.0101084 0.000777667 9.95596e-05 3
103 1 -9.32773 -9.16036 20.0189 0.00225149 0.00686924 0.00029257 3
104 1 -8.49807 -8.02722 20.0124 0.0127194 0.0104023 -0.00224364 3
105 1 -9.19961 -6.75737 20.0103 0.00282964 0.0027298 -0.00238602 3
122 1 -7.01167 -7.90456 19.9349 0.0109372 -0.00164167 -0.00490564 3
132 1 -6.32476 -9.15737 19.9626 0.00466073 0.00523481 -0.00544472 3
133 1 -6.17748 -6.70827 19.8165 0.00806356 0.00703201 -0.00370191 3
143 1 -4.94853 -9.04827 19.8645 -0.000584661 0.00809285 -0.00592404 3
144 1 -4.04419 -7.83705 19.833 -0.00531245 0.00231217 0.00999363 3
145 1 -4.7236 -6.60377 20.208 0.00306134 -0.00395587 0.0257931 3
162 1 -2.64343 -7.9351 20.2471 -0.00123622 -0.0142816 0.0349852 3
172 1 -2.10616 -9.25982 19.9154 0.00351229 -5.91979e-05 0.0126042 3
173 1 -2.11093 -6.96823 21.3099 -0.0179991 -0.0130404 0.0345934 3
183 1 -0.730256 -9.10947 20.097 -0.00600231 -0.0077427 0.0158908 3
184 1 -0.0327271 -7.85247 20.6747 -0.0211483 -0.0234756 0.0449508 3
185 1 -0.728343 -6.7364 21.5249 0.00332494 -0.00537862 0.0515311 3
202 1 1.28046 -7.91892 20.7863 -0.0145813 -0.026539 0.0455446 3
212 1 1.87316 -9.1208 20.1055 0.00084092 -0.0235272 0.0181122 3
213 1 2.04192 -6.86264 21.5909 0.00184408 -0.0177613 0.0218613 3
223 1 3.25343 -9.13847 19.7929 0.00815509 -0.0141948 0.00276198 3
224 1 3.76721 -7.76966 19.985 -0.00137698 -0.00418404 0.0294107 3
225 1 3.30716 -6.75582 21.1174 -0.00198489 -0.0320542 0.0511411 3
242 1 5.19314 -7.81999 19.7237 -0.0149573 -0.0059605 -0.00594067 3
252 1 6.05965 -9.0931 19.91 0.0013782 0.00618239 -0.00757788 3
253 1 5.85462 -6.5101 19.7754 -0.0100183 0.000455618 0.0142032 3
263 1 7.48722 -9.15775 19.9959 -0.00505638 0.0126648 -0.00313443 3
265 1 7.39278 -6.5723 19.7838 -0.012693 -0.0119582 -0.00803737 3
264 1 8.16122 -7.86187 19.9535 -0.00902043 0.00531153 -0.00519309 3
282 1 9.66661 -7.88271 20.0029 -0.0138017 -0.0096683 -0.000242268 3
292 1 10.4648 -9.16506 20.004 0.0119279 -0.00465381 0.00042626 3
293 1 10.4159 -6.70252 19.9918 -0.0109524 -0.00413115 -0.00126702 3
94 1 -10.7842 -4.32527 19.9903 -0.00123806 0.00636031 -0.00382911 3
95 1 -10.855 -1.88709 19.9184 -0.0105871 0.00612874 -0.00501475 3
106 1 -8.44662 -5.56649 19.8981 0.0113069 0.0109539 -0.00774237 3
107 1 -9.23863 -4.31913 19.893 -0.00643701 -0.00103361 -0.0064524 3
108 1 -8.41568 -3.14047 19.7575 0.00737727 -0.00749363 -0.00316675 3
109 1 -9.38827 -2.00408 19.7876 -0.00365917 -0.00581164 -0.00837779 3
110 1 -8.70668 -0.653502 19.887 -0.00906645 -0.00896522 0.0138375 3
123 1 -6.95703 -5.48942 19.7561 0.0196303 0.0045413 -0.000648247 3
125 1 -7.39125 -0.714107 20.6458 -0.0317314 -0.00757713 0.0351627 3
124 1 -6.92226 -3.11973 20.1075 0.000677464 0.00396724 0.0321945 3
134 1 -6.17737 -4.26093 20.1687 -0.00580835 -0.00165856 0.0312947 3
135 1 -6.67147 -1.97775 21.122 -0.0177297 0.0196198 0.0377546 3
146 1 -4.35746 -5.73486 21.3006 0.0109641 -0.0113169 0.0462192 3
147 1 -5.21264 -4.45758 21.4557 -0.0061783 -0.0131156 0.0357146 3
163 1 -2.8739 -5.6625 21.7165 0.0126691 -0.0149236 0.0278252 3
226 1 4.05973 -5.49275 21.4178 0.00266033 -0.0137453 0.0129545 3
243 1 5.3016 -5.24721 20.4895 -0.000239611 -0.0103544 0.034532 3
244 1 6.10285 -3.24649 21.9773 0.0166058 0.00529701 0.0250165 3
254 1 6.17932 -4.17179 20.6478 0.0158731 -0.00525496 0.0312206 3
255 1 6.76097 -1.91191 21.9034 0.00824844 -0.000155429 0.0288135 3
269 1 7.39643 -1.80588 20.6464 0.0276673 0.0185364 0.0288569 3
267 1 7.41236 -4.12011 19.8149 -3.4802e-05 -0.00772826 0.0244969 3
266 1 8.19328 -5.44725 19.7582 -0.0300607 0.000900807 -0.00454963 3
268 1 8.15599 -2.92645 19.8739 -0.0120585 -0.00546096 0.0130568 3
270 1 7.98814 -0.531933 20.2245 0.0196155 0.00296108 0.0350968 3
283 1 9.73089 -5.43163 19.8952 -0.0218339 -0.0131337 -0.00691214 3
284 1 9.62844 -3.00341 19.8202 -0.00605852 0.00082006 -0.00304 3
285 1 9.48115 -0.612469 19.8299 -0.00380408 0.0107384 0.0089378 3
294 1 10.4734 -4.2167 19.9109 -0.0124251 0.00615916 -0.004904 3
295 1 10.4103 -1.81181 19.8454 -0.00342731 -0.000916417 -0.00509754 3
96 1 -10.8425 0.610781 19.9122 -0.0104148 0.00338936 -0.00571316 3
97 1 -10.7983 2.98633 19.9619 0.00831423 -0.00483254 -0.0039418 3
98 1 -10.9005 5.50841 20.0137 -0.000437857 -0.00762909 -0.00113208 3
111 1 -9.40771 0.642061 19.7835 -0.0299589 -0.0013293 -0.00754418 3
112 1 -8.52451 1.81835 19.8555 -0.00424724 0.015005 0.00898089 3
113 1 -9.28752 3.02738 19.8547 0.00872992 -0.00537353 -0.00746304 3
114 1 -8.49637 4.28439 19.8481 -0.00684419 -0.00845377 -0.00726813 3
115 1 -9.2472 5.46612 19.9779 0.00650925 0.00644651 -0.00448182 3
127 1 -6.88697 4.12222 19.8789 0.0111549 0.0126054 0.00954596 3
126 1 -7.15877 1.89482 20.4972 -0.0182106 -0.00454528 0.0332 3
136 1 -6.70504 0.643054 21.1493 -0.00439778 -0.000450549 0.00840196 3
137 1 -6.37618 3.08883 20.7197 -0.019311 -0.0042082 0.0406675 3
138 1 -5.95541 5.21137 19.877 -0.00219927 -0.0256215 0.0139192 3
151 1 -5.60999 0.694691 22.0003 -0.00899618 -0.0119633 0.0371965 3
153 1 -5.43071 3.30046 21.9387 0.00497261 0.0083325 0.0348334 3
154 1 -4.57997 4.49367 22.1286 0.00713309 0.012389 0.0452887 3
155 1 -4.64951 5.15021 20.7763 0.00426487 0.00833496 0.0287427 3
178 1 -2.25528 5.86939 21.9069 0.00788863 -0.000774821 0.0187951 3
235 1 3.45931 5.77353 22.0726 -0.0235454 -0.00331763 0.0272282 3
247 1 5.53299 4.42137 21.6132 0.0113252 0.00952473 0.0199217 3
256 1 6.62877 0.738844 22.014 -0.011113 0.000817998 0.0370907 3
257 1 6.31276 3.21497 21.6351 -0.00457389 -0.00249716 0.0423418 3
258 1 5.92362 5.34613 20.4913 0.000750395 0.00795921 0.0308352 3
271 1 7.44265 0.681875 20.7661 0.011946 0.00584352 0.0288072 3
273 1 7.3621 3.00762 20.477 0.00877873 7.45521e-05 0.0405726 3
275 1 7.38881 5.28493 19.9353 -0.0166696 0.00371835 0.0173668 3
272 1 8.14672 1.78159 20.1165 0.00866877 0.0105842 0.032234 3
274 1 8.19833 4.13224 19.8688 -0.0159949 0.0038785 0.00999728 3
286 1 9.6179 1.7207 19.8048 0.00645724 -0.0157367 0.0018635 3
287 1 9.72154 4.16554 19.8481 -0.00721798 0.00149113 -0.00339776 3
296 1 10.3337 0.483967 19.8151 0.0115571 -0.0115208 -0.00544656 3
297 1 10.4593 2.99443 19.8589 -0.0146943 -0.000920479 -0.00583221 3
298 1 10.4278 5.46856 19.9371 -0.0189648 0.0109959 -0.00370207 3
99 1 -10.7374 8.00552 20.0173 0.0118384 -0.00201564 0.000666093 3
116 1 -8.44866 6.64446 19.983 -0.000368112 0.00503063 -0.00624543 3
117 1 -9.20451 7.86605 20.0317 -0.00147491 0.000291557 -0.00122552 3
118 1 -8.56126 9.15371 20.0325 0.00956851 -0.0158722 0.000378754 3
128 1 -6.90312 6.50938 19.8462 0.00228317 -0.00344763 -0.00115571 3
129 1 -7.12804 9.08711 19.9994 0.00517068 0.0094735 -0.00399105 3
139 1 -6.37716 7.80281 19.8782 -0.00483525 -0.00446505 -0.0068575 3
156 1 -4.03142 6.40955 20.2601 0.0199414 -0.00603025 0.042925 3
157 1 -4.79206 7.71984 19.7813 0.0166205 0.00467192 0.00148366 3
158 1 -4.34556 9.06482 19.8155 -0.0127745 0.00932753 -0.00700951 3
168 1 -2.731 6.71782 20.7511 0.010436 0.0218205 0.0209916 3
169 1 -2.919 9.11459 19.8514 0.00275088 0.0133002 0.00207792 3
179 1 -2.0935 7.87262 20.0945 0.000346471 0.0136963 0.0337722 3
196 1 -0.157976 6.81313 21.5093 -0.00838631 0.00426485 0.0445006 3
197 1 -0.660453 7.80482 20.432 -0.00845452 0.0222732 0.0319549 3
198 1 -0.163296 9.06743 19.905 -0.00653465 0.0205276 0.0152394 3
208 1 1.23228 6.8233 21.5441 0.00721801 0.0138332 0.0448058 3
209 1 1.2612 9.06478 20.0043 0.01322 0.0202093 0.0133739 3
219 1 1.74219 7.77647 20.5172 0.00455268 0.0038371 0.0374642 3
236 1 3.86088 6.69601 20.8943 0.00148946 0.00809784 0.0246289 3
237 1 3.15746 7.8278 20.3099 -0.0133203 0.0149755 0.0379093 3
238 1 3.90053 9.0295 19.8783 0.00138398 0.00772254 0.00334674 3
248 1 5.10884 6.48325 20.2025 0.0107636 0.00494064 0.0292775 3
249 1 5.32953 9.09301 19.8287 -0.00196382 0.00575627 -0.00639822 3
259 1 5.87028 7.76892 19.8153 0.00585298 0.00791266 0.00234678 3
277 1 7.39247 7.84815 19.8618 0.000620801 -0.00167452 -0.00566981 3
276 1 8.12009 6.56593 19.854 -0.0227567 0.00694562 -0.00138145 3
278 1 8.23481 9.08691 19.9688 -0.00543727 0.0034579 -0.00361362 3
288 1 9.64005 6.69214 19.9251 -0.0180714 0.000911048 -0.00406474 3
289 1 9.65873 9.16279 20.0011 -0.00686225 0.013675 -0.000478486 3
299 1 10.4218 7.93795 19.9891 0.000604691 0.00554282 -0.000950314 3
148 1 -4.92187 -3.45779 22.4767 0.0113901 0.0204893 0.0294733 3
149 1 -5.87479 -1.95313 22.4169 0.0143115 0.0019295 0.0144244 3
186 1 -0.168489 -5.3858 22.4876 -0.0263172 -0.0006396 0.0351713 4
150 1 -5.49142 -0.714205 22.865 -0.00762096 -0.00184423 -0.00377984 2
164 1 -3.45165 -3.57447 22.8554 0.0179487 0.0199264 0.0292009 3
174 1 -2.27884 -4.70816 22.8596 0.000119627 0.0148068 0.0421646 3
187 1 -0.798301 -4.43086 23.4279 -0.0518738 -0.000436305 -0.00106161 3
165 1 -1.73652 -0.565645 27.1728 0.0360237 -0.0208933 0.0546273 2
175 1 -1.51034 -1.61893 26.1678 -0.0185738 0.00203535 0.0697787 2
189 1 0.0163269 -2.1266 26.0751 0.0284617 0.00751547 0.0826434 3
227 1 3.71989 -4.4582 22.3961 -0.00570645 -0.0190987 0.0568936 4
203 1 1.44126 -5.70918 22.5713 -0.0158402 0.00157667 0.0158501 3
228 1 4.95574 -3.40641 22.8843 0.0105641 0.00586431 0.0308305 3
245 1 6.39049 -0.648216 22.6552 0.010106 -0.00500317 0.0201925 3
188 1 0.248086 -3.39902 25.376 0.0139839 0.00711852 0.082683 2
229 1 4.57926 -2.16566 23.5097 0.0173096 -0.0395181 0.0693659 3
190 1 1.05278 -1.06212 26.3597 0.0193177 -0.0361769 0.0532422 3
214 1 2.46467 -4.90129 23.2198 -0.00966828 -0.00120782 0.0162999 2
230 1 5.24245 -0.793225 23.5956 0.0207036 -0.00589475 0.0306622 3
204 1 1.72604 -3.30883 24.7222 0.0266685 0.000483358 0.0826159 3
205 1 2.33976 -1.10924 25.8373 0.0489217 -0.000112489 0.0691159 3
215 1 2.48658 -2.66807 25.6557 0.0256647 0.0248118 0.0287378 2
152 1 -4.85295 2.00226 22.312 -0.016352 0.00681398 0.0287546 3
167 1 -3.30204 5.23244 22.8084 -0.00573321 0.0368737 0.0369342 3
195 1 -0.88654 5.7142 22.3841 -0.00470273 -0.00139964 0.032422 3
194 1 -0.278801 4.76713 23.3295 -0.0175161 0.00737548 0.0434855 3
177 1 -2.62785 5.43118 24.0668 0.0136116 0.0257003 0.0184049 2
166 1 -1.66582 1.34163 25.3871 0.0503788 -0.029806 0.0689629 2
193 1 -1.3523 4.83676 24.6537 0.0217373 0.0507136 0.039752 2
176 1 -0.940552 0.685818 26.4581 0.0242818 0.0227459 0.0971219 3
218 1 2.07655 5.93311 22.524 -0.0142414 0.0126283 0.0366048 3
234 1 4.37664 4.74431 22.6101 0.0117112 0.0277947 0.0139344 3
246 1 5.65281 1.91987 22.2461 -0.0107655 -0.00340778 0.0168711 3
191 1 0.617595 0.407066 26.7749 0.0276666 -0.0241916 0.0493575 3
207 1 1.66091 4.84519 23.4696 -0.00666758 0.00436915 0.0345896 3
232 1 4.62153 2.01766 23.5303 0.0206961 0.0171012 0.0355169 3
233 1 4.09066 3.75258 23.7518 0.0101011 0.0093309 0.0594687 2
192 1 1.31624 1.61897 26.6174 0.0552728 -0.00840542 0.0693285 2
231 1 4.49044 0.552881 24.2385 0.011841 -3.36393e-05 0.0264482 3
206 1 2.05923 1.16791 25.4914 0.00886841 -0.01245 0.0372022 3
216 1 2.94052 0.100881 25.0155 -0.00870009 -0.0237631 0.0613472 4
217 1 3.00639 4.70903 24.263 0.0203373 0.0234983 0.0143484 2
