ITEM: TIMESTEP
39000
ITEM: NUMBER OF ATOMS
168
ITEM: BOX BOUNDS pp pp pp
-1.4715758017245314e+01 1.5057610017245315e+01
-1.2710055654020760e+01 1.2664508654020761e+01
-5.0001035148846022e+01 1.0000103514884636e+02
ITEM: ATOMS id type x y z vx vy vz c_coord
92 1 -10.8547 -9.16661 19.9429 0.0165731 0.00572521 0.00998176 3
93 1 -10.8571 -6.76252 19.6299 0.0086367 0.00192774 -0.0034419 3
103 1 -9.40085 -9.28098 20.1341 0.0118777 0.00304822 0.0465132 3
104 1 -8.87991 -8.00694 19.6642 0.00987121 0.00518514 -0.00458128 3
105 1 -9.37189 -6.69509 19.2691 0.000692196 0.00487239 0.00226593 3
122 1 -7.46511 -8.001 19.1692 -0.00688294 0.00324041 -0.017839 3
132 1 -6.74549 -9.13693 19.6019 0.00699513 -0.00074264 0.00509571 3
143 1 -5.34363 -9.27366 19.9844 0.0108279 0.00724095 -0.0112033 3
172 1 -2.29714 -9.31453 20.3114 0.0153847 0.0114521 -0.0124071 3
183 1 -0.896019 -9.28737 20.5999 -0.0101799 6.364e-05 -0.00958771 3
162 1 -3.29202 -8.41385 20.8341 -0.0217054 0.0151809 -0.000159454 3
144 1 -4.68651 -8.09757 20.3362 0.027766 -0.0217182 -0.00210253 3
133 1 -6.71781 -6.81805 19.5097 -0.0127826 0.00248798 -0.00640662 3
145 1 -5.43021 -6.87919 20.1291 -0.0075666 -0.027792 -0.0189681 3
173 1 -2.78691 -7.38592 21.6016 0.0157654 -0.0110888 -0.0102943 3
184 1 -0.2826 -8.0311 20.9528 -0.0376646 0.00274855 -0.00518498 3
185 1 -1.27689 -7.35114 21.7267 0.00134741 -0.0114577 -0.0348128 3
212 1 2.0405 -9.18433 20.1477 -0.0286853 -0.000136917 -0.0134045 3
223 1 3.4182 -9.15801 20.2511 -0.0100887 0.0232108 0.00116202 3
224 1 4.16985 -7.84588 20.4658 -0.0177781 -0.00343249 -0.0144127 3
242 1 5.40628 -7.64352 19.7484 -0.0157881 -0.00914582 -0.0148213 3
252 1 6.26699 -9.05387 19.5105 -0.0140548 -0.00731784 -0.00518645 3
202 1 1.26747 -7.89338 20.661 -0.0242447 -0.0124318 -0.0255646 3
225 1 3.58624 -6.47899 21.0454 -0.0230752 -0.0124235 -9.0201e-05 3
213 1 2.24359 -6.53615 20.8001 -0.0147612 -0.000388409 -7.73969e-05 2
263 1 7.68597 -9.02371 19.6503 -0.00770624 0.0124909 0.00275298 3
264 1 8.3508 -7.68232 19.5908 -0.00397566 -0.0182378 -0.0149622 3
282 1 9.74893 -8.00268 20.0305 -0.000962837 0.000377843 -0.00297014 3
292 1 10.4522 -9.24805 20.3306 -0.00529927 0.00355567 -0.00201506 3
293 1 10.4475 -6.77589 19.6537 0.00730726 0.0141351 0.0221696 3
94 1 -10.8078 -4.29783 20.0606 0.0257149 0.0147427 0.00189343 3
95 1 -10.8495 -1.77616 20.1215 0.0115584 0.00719886 -0.0141455 3
106 1 -8.58021 -5.33387 19.3898 -0.000592301 -0.00248677 0.0235072 3
107 1 -9.23147 -4.16698 19.9424 0.0127528 -0.00500222 -0.0267515 3
109 1 -9.42274 -1.60287 20.6024 -0.00796424 -0.00374426 -0.0295145 3
110 1 -8.81411 -0.392986 21.1422 -0.0114346 0.0115186 -0.0167961 3
108 1 -8.68635 -2.8298 20.244 -0.00347302 0.0141751 -0.0097557 3
125 1 -7.5469 -0.383317 21.8811 -0.0139908 0.0238719 -0.00210948 3
124 1 -7.30259 -2.85199 20.7591 -0.0110585 0.0324419 -0.0239568 3
123 1 -7.17745 -5.37198 19.7758 -0.0149952 0.0142843 -0.00863776 3
146 1 -4.9975 -5.69583 20.9391 0.0142394 0.0156224 0.00571912 3
134 1 -6.65658 -4.14401 20.5497 -0.0218735 -0.00481278 -0.0130279 3
147 1 -5.42244 -4.45264 21.607 -0.00577784 -0.0288921 -0.0223913 2
135 1 -6.79763 -1.64581 21.5446 -0.0130576 0.000869533 -0.0216871 3
163 1 -3.88373 -6.26311 21.8044 0.0219744 0.000863914 0.00534888 3
253 1 6.22437 -6.32498 19.5994 -0.029965 -0.00711381 -0.0157517 3
226 1 4.50059 -5.14312 21.195 -0.0231982 -0.0171745 -0.0335487 3
243 1 5.75182 -5.08359 20.5993 -0.0302068 0.00307959 -0.037071 3
254 1 6.47279 -3.86426 21.1256 -0.0143358 0.0040114 -0.00909208 3
203 1 1.50905 -4.93 21.1616 -0.00141512 -0.0153411 -0.00639485 1
269 1 7.60938 -1.61616 21.4595 0.00312361 0.0096986 -0.0401549 3
265 1 7.64188 -6.32946 19.2609 0.00896225 -0.00421363 0.0213899 3
283 1 9.69087 -5.38246 19.3414 -0.0107845 0.00606188 0.00970567 3
284 1 9.74373 -2.84056 20.2365 -0.0116999 0.0309394 0.00816998 3
285 1 9.88364 -0.468676 21.1099 -0.00444653 -0.0127565 0.0152896 3
294 1 10.4684 -4.1999 19.6329 -0.00213182 0.00539143 0.0234118 3
295 1 10.6466 -1.79401 20.6286 0.0094586 0.00455067 -0.000566495 3
268 1 8.29298 -2.71278 20.6265 -0.0283797 0.00182328 -0.0117067 3
270 1 8.53363 -0.479385 21.6225 -0.0148022 -0.015935 -0.0377691 3
266 1 8.22525 -4.92911 19.2505 -0.00614319 -0.00741666 -0.0203371 3
267 1 7.61963 -3.8674 20.2178 0.00440138 0.00635736 -0.0328257 3
96 1 -10.8543 0.627537 20.1678 -0.0324074 0.0213303 -0.00561729 3
97 1 -10.7738 3.00648 20.1956 0.0235904 -0.00605998 -0.0183937 3
98 1 -10.8314 5.45702 19.9293 -0.00935617 0.00390922 -0.0121031 3
111 1 -9.46013 0.779492 20.551 -0.0104066 -0.011384 -0.00677443 3
113 1 -9.44217 3.21947 20.1887 -0.00546751 0.0140458 -0.0190693 3
115 1 -9.50509 5.61388 19.4429 -0.0185957 -0.00906268 -0.016113 3
112 1 -8.89569 2.0561 20.8102 -0.0160372 -0.00459123 -0.0390858 3
114 1 -8.7425 4.39205 19.8243 -0.00100857 -0.0203953 -0.0303165 3
126 1 -7.78175 2.28715 21.6994 -0.0224764 0.0115966 -0.0336207 3
127 1 -7.27326 4.17523 19.9042 -0.00818189 -0.0116085 -0.0331693 3
138 1 -6.39735 5.30544 19.5613 0.00314038 -0.00534996 -0.00644879 3
155 1 -5.25341 5.74105 20.3219 0.0171003 -0.00507918 -0.0143649 3
137 1 -7.02078 3.37352 21.089 -0.0059974 0.00902682 -0.0259654 3
154 1 -4.78521 4.77682 21.4345 0.00947917 0.00952784 -0.0305188 3
153 1 -5.45621 3.55826 21.4071 -0.00164979 -0.00139472 -0.0362853 3
258 1 6.20425 5.53619 20.2061 0.000580908 0.0184501 -0.0152884 3
247 1 6.05367 4.70578 21.3652 -0.00169017 0.00356906 -0.0147272 3
257 1 6.51898 3.2766 21.24 -0.0142573 0.0163084 -0.0243971 3
246 1 5.9569 2.14668 21.9369 0.00751475 0.00492254 -0.0491604 2
275 1 7.68948 5.40107 19.7146 0.0046236 -0.00691 -0.00510122 3
286 1 9.89185 1.80985 20.7178 0.00535222 -0.00506169 0.0129064 3
287 1 10.0107 4.21726 19.6434 -0.00778758 0.0201991 0.00259485 3
296 1 10.6201 0.706285 20.5629 0.0139168 0.00626731 0.00553156 3
297 1 10.4938 3.00633 20.1117 0.0192143 -0.0177945 -0.0148199 3
298 1 10.5179 5.52476 20.0055 -0.00430418 -0.0087087 0.0107556 3
274 1 8.59082 4.30984 19.5573 -0.0158535 -0.00808016 0.00312027 3
272 1 8.47283 2.08318 20.9536 -0.0104804 -0.0267749 -0.0241142 3
273 1 7.84348 3.17435 20.3869 0.0116909 -0.0181317 -0.00951539 3
271 1 7.70679 0.881194 21.7127 -0.0186511 0.00893756 -0.0154144 3
99 1 -10.7556 7.95327 19.936 -0.00581522 -0.0214632 0.0430135 3
116 1 -8.62675 6.72354 19.4544 0.00533957 0.0219616 -0.00189607 3
117 1 -9.35928 8.0087 19.4708 0.00836725 -0.028145 0.00554467 3
118 1 -8.7429 9.2772 19.7133 -0.0057341 -0.00967233 0.0111386 3
129 1 -7.36561 9.24277 19.6612 -0.0013212 0.0221544 0.00370565 3
128 1 -7.22405 6.58057 19.4539 -0.00858233 -0.010993 0.0228997 3
139 1 -6.60228 7.85396 19.5449 -0.00530633 0.01823 -0.0396116 3
158 1 -4.51913 9.29627 20.209 0.00716265 0.0066034 -0.0202248 3
169 1 -3.14658 9.36872 20.3073 0.0112625 0.00428203 -0.00578718 3
198 1 -0.169589 9.30669 20.5709 -0.0128847 0.0143944 -0.0114408 3
197 1 -0.965859 7.98066 20.681 0.0255901 -0.00967801 -0.00603369 3
179 1 -2.45373 8.15499 20.8643 -0.0155247 0.00215485 -0.00370915 3
157 1 -5.32076 8.12606 19.9985 -0.0141385 0.0278895 -0.0396997 3
156 1 -4.66747 6.95576 20.6128 0.0058292 0.020073 -0.00535528 3
196 1 0.00220411 6.92034 21.0357 0.0100653 -0.0109146 -0.01261 2
168 1 -3.54717 7.26442 21.4937 -0.0190855 0.0165986 -0.00834499 3
209 1 1.21404 9.05106 20.4726 0.0287425 0.0156191 0.00407008 3
238 1 4.05948 9.01794 20.1089 -0.00939245 -0.00170785 -0.00233939 3
249 1 5.47517 9.09854 19.6767 -0.00984707 0.0114826 -0.0274959 3
259 1 6.12776 7.84845 19.4131 0.011895 0.0297738 -0.00489639 3
237 1 3.673 8.08978 21.0004 -0.0077729 -0.00384566 -0.00390103 3
219 1 2.17695 8.00528 20.6961 0.0172783 -0.0234305 -0.0143759 3
248 1 5.44717 6.71904 20.1481 -0.00264103 -0.00203655 -0.00489163 3
236 1 4.85812 7.30413 21.3764 -0.0060206 -0.00285065 -0.0335005 3
208 1 1.38165 6.66331 21.0102 0.0054966 -0.0137044 0.00276904 2
277 1 7.5877 7.99898 19.5242 0.00683378 -0.0213493 0.0101867 3
278 1 8.29379 9.19748 19.8496 0.000691568 -0.0003743 -0.00585584 3
288 1 9.77828 6.68015 19.9386 0.00631823 -0.00362905 0.0215799 3
289 1 9.75202 9.20157 19.9718 -0.0120166 0.00162577 -0.000133691 3
299 1 10.4702 7.9557 19.8989 -0.00690196 -0.0217679 0.00507541 3
276 1 8.28304 6.71613 19.6036 -0.0030525 -0.00605709 0.00906473 3
186 1 -0.781267 -6.47952 23.0037 0.00223472 0.00577009 0.020092 2
148 1 -5.10544 -2.98944 22.8894 0.0067821 0.00670997 0.00706509 2
149 1 -5.56711 -1.49179 22.3162 0.0129803 -0.0202849 -0.0368705 3
150 1 -5.00086 -0.176875 22.6725 0.0172093 0.00858065 -0.0662997 2
164 1 -4.80998 -2.2077 24.128 0.0289353 0.0274448 -0.0108239 2
174 1 -3.5757 -5.82884 23.0011 -0.0191627 -0.0103274 -0.0203369 2
187 1 -1.9662 -6.07909 23.5567 0.00928356 -0.0239507 0.0128108 2
244 1 5.80857 -2.96079 22.1113 -0.0237758 0.00289459 -0.00934033 3
227 1 3.86575 -3.97699 22.1776 -0.00666949 0.00431428 -0.0264987 3
228 1 4.52804 -2.89375 22.8011 -0.00968693 -0.00417944 0.0113481 3
229 1 4.32284 -1.92265 23.7733 -0.0224109 0.0194923 -0.0318297 2
214 1 2.48064 -4.41929 22.1861 -0.00884047 -0.0213213 -0.0228094 2
230 1 4.99053 -0.78226 24.1213 -0.0176477 -0.00274232 -0.0565321 3
231 1 5.1713 -0.455403 25.4897 -0.0222601 -0.0268267 -0.0564233 2
245 1 6.09897 -0.455745 23.0583 -0.0143727 0.0240349 -0.0316553 3
255 1 6.4842 -1.77591 22.396 -0.0281062 -0.00198981 -0.016009 3
232 1 4.94569 -0.521323 26.8739 -0.0604596 -0.0378216 -0.0074534 2
136 1 -7.08742 0.987654 22.2181 -0.0162588 -0.00225977 -0.0222061 3
151 1 -5.58273 1.17965 22.3672 0.00695651 -0.00809552 -0.0547007 3
152 1 -4.79155 2.48046 22.1877 0.000525394 0.00922066 -0.0556023 2
167 1 -3.80207 4.99227 22.4516 0.0115674 -0.0225095 -0.0106231 3
177 1 -3.66917 4.65404 23.9395 0.0245065 -0.010562 -0.018177 2
193 1 -3.52128 4.57695 25.3096 -0.0457348 0.00944744 -0.0126699 2
194 1 -2.79041 6.02839 25.4599 0.0159386 -0.000307777 -0.0155095 2
234 1 5.71596 5.41507 22.6158 0.0114805 -0.0254313 -0.0104873 3
233 1 6.21163 5.14725 24.1122 0.0195108 -0.0202375 -0.0331801 2
217 1 6.34495 5.40581 25.5171 0.0100114 -0.00678239 -0.0039305 2
256 1 6.55178 0.810135 22.5727 -0.0359497 0.0288508 -0.0240843 3
178 1 -3.20656 6.34992 22.643 -0.0178888 0.00334252 0.00326523 3
195 1 -2.65858 6.55438 24.108 0.0289643 -0.00668429 -0.0135626 2
235 1 5.44291 6.83118 22.671 -0.0224388 -0.00161127 -0.00753439 3
207 1 6.08394 6.94266 25.3583 0.0171209 -0.0145491 -0.0375641 2
218 1 5.31421 7.2415 24.1017 0.0121342 -0.0167897 -0.0174783 2
204 1 4.27396 -3.26966 32.556 0.0044842 -0.0127357 0.0264579 2
215 1 6.45947 -1.89341 32.4974 0.0338346 -0.0160228 0.0162989 2
188 1 5.3633 -2.52759 33.5081 -0.0255914 -0.00869448 0.00352474 2
205 1 6.6681 -0.596915 33.0262 0.00964691 -0.00748773 0.0116749 3
216 1 5.40487 0.402399 32.7522 -0.0244368 -0.0427369 0.00966459 3
206 1 5.12756 1.64149 33.2147 0.000353414 0.031902 0.0175131 3
190 1 6.36831 -0.530318 34.4441 0.0182934 -0.0138228 0.00163689 3
189 1 5.79337 -1.61609 35.1622 0.00745212 0.0200293 0.00883444 2
165 1 5.52613 -1.21384 37.4114 -0.00375391 -0.0225799 -0.0140081 2
175 1 5.56046 -2.08078 36.2937 0.0222026 -0.0221177 0.00946865 2
192 1 5.49461 1.50533 34.5628 0.0519745 0.0333194 0.00602579 2
176 1 5.49571 0.273436 36.8486 -0.00412606 0.0109853 0.000369657 3
166 1 4.12898 0.901537 37.2937 0.0187551 -0.00794491 0.00929727 2
191 1 6.04495 0.527613 35.4432 0.0325949 0.0262377 0.0245121 3
