ITEM: TIMESTEP
23300
ITEM: NUMBER OF ATOMS
168
ITEM: BOX BOUNDS pp pp pp
-1.4715758017245314e+01 1.5057610017245315e+01
-1.2710055654020760e+01 1.2664508654020761e+01
-5.0001035148846022e+01 1.0000103514884636e+02
ITEM: ATOMS id type x y z vx vy vz c_coord
92 1 -10.8486 -9.22273 19.8462 0.000629433 -0.00272841 -0.00224612 3
93 1 -10.7882 -6.80446 19.8689 -0.000637711 0.00428716 0.0108828 3
103 1 -9.43479 -9.19842 19.7684 0.00321319 0.0215158 0.013728 3
104 1 -8.70661 -7.94809 20.2754 -0.0126447 -0.00419745 0.032762 3
105 1 -9.40101 -6.59767 20.451 0.000583952 0.0104864 0.0369303 3
122 1 -7.62342 -8.19858 21.2893 0.00623862 -0.0148952 0.027798 3
132 1 -6.85871 -9.41084 20.9036 -0.00293338 -0.00767031 0.00688291 3
133 1 -7.04477 -7.0541 22.0066 0.010696 -0.0331124 0.021197 3
143 1 -5.46809 -9.48708 20.7951 -0.00072459 0.0150079 0.00370667 3
144 1 -4.91253 -8.86097 21.9058 0.013973 -0.0236106 0.0218505 3
172 1 -2.55316 -9.47057 20.9704 0.01887 0.0317636 -0.0109357 3
183 1 -1.04905 -9.49974 20.8041 0.0193609 -0.00212487 0.00128078 3
184 1 -0.33733 -9.11454 21.8738 -0.00105536 -0.00396109 -0.0228354 3
212 1 1.98436 -9.34666 20.6567 -0.0147209 0.011332 -0.014424 3
223 1 3.54563 -9.38398 20.6507 -0.00671618 0.00414924 -0.0153009 3
224 1 4.24336 -8.82837 21.7394 -0.0186311 -0.000317778 -0.00746966 3
242 1 5.71584 -8.57816 21.8076 -0.00336405 -0.00961942 0.0108649 3
252 1 6.23329 -9.55539 20.8939 -0.00391096 -0.0110531 -0.00668838 3
202 1 1.2679 -9.01367 21.8474 0.0264409 0.00618599 -0.00299815 3
263 1 7.74094 -9.32934 20.6736 0.0133705 -0.020943 0.015715 3
265 1 8.02939 -7.10772 21.8461 -0.0123501 0.000763005 0.0408708 3
264 1 8.47498 -8.09688 20.8457 0.0103243 -0.015863 0.0313217 3
282 1 9.7062 -8.00471 19.8921 -0.00119426 -0.00687306 0.0272009 3
292 1 10.4945 -9.24562 19.8139 0.00188233 -0.0102816 0.00762972 3
293 1 10.4272 -6.79033 19.9582 -0.00179471 -0.0138256 0.0215188 3
94 1 -10.9617 -4.30417 20.603 -0.0120778 -0.00817676 0.0288627 3
95 1 -10.9539 -1.89133 20.6423 0.00639413 0.0148775 -0.00919884 3
106 1 -8.95823 -5.54675 21.3833 0.0121374 0.00556722 0.023666 3
107 1 -9.82596 -4.28611 21.5673 -0.00276849 0.0102063 0.0281979 3
108 1 -9.08574 -3.09883 21.8364 0.00196954 -0.0133575 0.00326448 3
109 1 -9.84876 -1.76361 21.7005 0.00593301 -0.00654484 0.0154057 3
123 1 -7.54215 -5.72993 21.8849 0.0242274 0.0111885 0.0312282 3
266 1 8.66068 -5.72293 21.9529 -0.00438922 0.00834601 0.0355363 3
283 1 9.86016 -5.67215 20.8767 0.00485418 0.0075303 0.038546 3
284 1 10.1128 -3.23196 21.6636 0.00450799 -0.00495717 0.00874675 3
285 1 10.3462 -0.825488 21.8353 0.00153242 -0.00738966 -0.0110705 3
294 1 10.5693 -4.44213 21.0164 -0.00383609 0.00327055 0.0281578 3
295 1 10.9001 -2.04278 21.2389 0.00383168 -0.0217665 -0.0119047 3
96 1 -10.9097 0.584329 20.4637 0.00953951 -0.0029022 -0.0103225 3
97 1 -11.0283 3.08636 20.7355 -0.00907137 -0.0145042 0.00718832 3
98 1 -10.7692 5.57046 20.1988 -0.00670059 -0.00862061 0.0202674 3
111 1 -9.86291 0.758836 21.7334 -0.00678493 -0.00112528 0.020574 3
113 1 -9.94276 3.2092 21.7253 -0.00919069 -0.00446781 0.0183959 3
114 1 -9.02386 4.477 21.7157 0.00457642 -0.00830875 0.0239336 3
115 1 -9.4817 5.68895 21.0126 -0.00828843 -0.0183204 0.0376104 3
275 1 8.13912 5.48112 22.0439 0.002144 0.00424589 0.0209285 3
286 1 10.4241 1.66753 21.8425 0.00147892 -0.0116698 -0.00995074 3
287 1 10.3618 4.10004 21.5743 0.00913717 -0.013518 0.01724 3
296 1 10.8845 0.489761 21.1453 -0.00884801 -0.00804272 -0.00382411 3
297 1 11.0446 2.92861 21.1775 -0.00127825 0.000425024 -0.0117057 3
298 1 10.7692 5.38683 20.8951 -0.0100318 -0.0102528 0.0316798 3
99 1 -10.7781 7.94723 19.7409 0.00865879 0.0113882 0.000146867 3
116 1 -8.76818 6.99213 20.9095 -0.0176675 -0.00155185 0.0251205 3
117 1 -9.22023 8.01205 19.8152 0.00557343 0.00705998 0.0219147 3
118 1 -8.48336 9.16565 19.8834 0.000787862 0.002679 0.0165034 3
128 1 -7.59725 7.2223 21.6116 0.0210329 -0.0131594 0.0386723 3
129 1 -7.15808 9.23204 20.4432 0.00144351 0.00839539 0.0135804 3
139 1 -6.62525 8.40566 21.4276 -0.00295479 0.0296159 0.0197002 3
157 1 -5.33677 8.77691 21.9531 -0.0120923 0.0254887 0.024974 3
158 1 -4.39184 9.68885 21.1115 0.00658271 0.00234941 0.00882932 3
169 1 -3.00836 9.55465 21.1004 0.0202053 0.00294627 -0.00321587 3
198 1 -0.0888879 9.22692 20.7435 -0.0232219 -0.0126516 -0.0324038 3
197 1 -0.868127 8.63601 21.8719 0.00611635 -0.0103325 -0.0205484 3
209 1 1.31449 9.22457 20.71 0.00137104 -0.001123 -0.0293508 3
238 1 4.21244 9.53881 21.091 -0.00654813 -0.0154511 -0.00370869 3
249 1 5.65606 9.4777 21.012 -0.00205609 -0.0104483 -0.00564582 3
259 1 6.49112 8.40653 21.6829 0.00514065 -0.000969919 0.0138151 3
237 1 3.70485 8.43177 21.7953 -0.0165888 -0.0264042 -0.0105738 3
219 1 2.18797 8.36617 21.85 -0.0130022 -0.00668186 -0.0205471 3
277 1 7.83361 8.11598 21.3388 0.0183087 0.0132225 0.0180436 3
276 1 8.66571 6.71451 21.6135 0.0119509 0.00666264 0.0167906 3
278 1 8.33054 9.0428 20.4685 -0.00497262 0.00726348 0.0272751 3
288 1 9.91463 6.587 20.8861 0.0146209 0.0140632 0.0340374 3
289 1 9.77421 9.0008 20.0658 0.00708395 0.0127144 0.0261393 3
299 1 10.4544 7.77054 20.1279 0.0133767 0.0101896 0.0248247 3
145 1 -5.70162 -7.66867 22.4812 0.017229 -0.0143632 0.0167159 3
162 1 -3.28816 -9.03842 22.0335 -0.00468298 0.00912851 -0.0172278 3
173 1 -2.45431 -8.06653 22.849 0.000631269 0.00827687 -0.00441586 3
185 1 -1.05642 -8.13986 22.8554 0.0175841 0.00912609 -0.011074 3
186 1 -0.227271 -6.96329 23.3192 -0.00363826 0.0209654 -0.00808248 3
163 1 -3.40699 -6.69134 22.771 -0.0179687 0.00704886 0.0181444 3
146 1 -4.86757 -6.53997 22.7126 0.0265887 -0.00736958 0.00974082 3
253 1 6.58758 -7.29061 22.1072 -0.00132168 -0.00873645 0.00991773 3
225 1 3.55814 -7.8164 22.5048 0.0051499 0.00292109 0.00955031 3
213 1 2.10119 -8.06964 22.6662 0.00634098 -0.00170221 -0.0048396 3
203 1 1.33967 -7.07758 23.4444 0.0191726 -0.0030234 0.013556 3
226 1 4.47482 -6.69436 22.965 0.00470225 -0.0221495 0.0143393 3
110 1 -9.07825 -0.468275 22.2363 -0.020192 -0.00494253 -0.00683849 3
124 1 -7.55455 -3.14479 22.1048 0.00374745 -0.010099 0.0223317 3
125 1 -7.55698 -0.457355 22.4412 -0.0182664 -0.0272563 -0.000319075 3
134 1 -6.63483 -4.56981 22.2985 0.00437834 -0.00805148 0.0210193 3
135 1 -6.73354 -1.82027 22.4516 -0.00208147 -0.0138845 0.00442315 3
147 1 -5.3857 -4.9861 22.8904 -0.000137092 0.000215155 0.00478429 3
148 1 -4.7902 -3.63447 23.1899 0.0157885 0.00217367 0.0124521 3
149 1 -5.38114 -2.02517 22.951 0.00447594 -0.0214281 0.0169085 3
150 1 -4.96528 -0.724195 23.2707 -0.0196352 -0.00206936 0.0173865 2
164 1 -3.32299 -4.0479 23.5532 -0.00627921 0.0098443 0.0142964 3
174 1 -2.68473 -5.42657 23.1365 0.0172295 0.0180765 0.00856546 3
187 1 -1.30673 -6.01441 23.2588 0.00386114 0.00157191 -0.0402475 2
243 1 5.80245 -6.20837 22.6034 -0.00879546 -0.020013 0.0398485 3
254 1 6.44601 -4.79346 22.8118 -0.00186961 -0.00552422 0.00812069 3
255 1 6.85457 -2.31573 23.6773 -0.00734216 0.00517026 0.0191591 3
244 1 6.0283 -3.65919 23.4403 0.00995918 0.0217089 0.0361024 3
227 1 3.79088 -5.661 23.6732 0.0283514 0.00765049 0.0262987 3
228 1 4.64331 -4.24759 24.1146 0.00254439 -0.00707112 0.0532848 3
245 1 6.17973 -1.00231 24.1903 -0.00738278 0.0146912 -0.000603092 3
229 1 4.72949 -3.22074 25.1131 0.00928113 -0.00754223 0.0295042 3
214 1 2.53265 -6.18216 23.7828 0.00503784 0.00093147 -0.00166553 2
230 1 5.36821 -1.83794 25.2986 0.0228588 -0.0194686 0.0054172 3
231 1 5.64542 -0.789671 26.2963 0.0185466 -0.00265782 2.66287e-05 2
267 1 7.95689 -4.61058 22.482 0.00182936 0.00504986 0.0151843 3
268 1 8.71213 -3.37817 22.3444 -1.64464e-05 0.00374357 0.0169325 3
269 1 8.19017 -2.18986 22.9154 0.00231612 -0.000291742 0.0225848 3
270 1 9.04983 -0.980959 22.6897 0.0110391 -0.00102661 0.0092278 3
112 1 -9.21408 2.06513 22.2051 0.00131109 -0.00830317 0.0192928 3
127 1 -7.66919 4.44917 22.3136 -0.0136742 -0.0116867 0.0285337 3
126 1 -7.6802 2.01201 22.3061 -0.000128896 -0.00209816 0.00947699 3
138 1 -7.05793 5.98108 22.2202 0.00901606 -0.000899685 0.0115528 3
137 1 -7.07667 3.1835 22.8016 -0.00607592 -0.00365164 0.00229057 3
136 1 -6.82082 0.719285 22.4649 -0.0181419 0.000528298 0.0156467 3
151 1 -5.43011 0.765127 23.1479 -0.00262812 -0.00169652 0.0275649 3
153 1 -5.55013 3.45084 23.3023 0.00227546 -0.00662054 0.00717462 3
154 1 -5.07704 4.8732 22.9861 0.00857194 0.00699992 0.00467678 3
152 1 -4.94952 2.12852 23.7806 -0.0175562 -0.00388185 0.00672796 2
167 1 -3.91305 5.52092 23.5424 -0.00121274 -0.00263074 0.0321308 3
194 1 -1.89516 6.11737 25.0089 -0.0279081 0.0410118 0.00186349 2
177 1 -4.26274 5.3414 25.1075 -0.0104558 -0.0146608 0.00849231 2
193 1 -2.93823 5.17024 25.651 0.00145244 -0.0231745 -0.00456672 2
258 1 6.78831 5.93157 22.6035 0.00260331 0.000172294 0.0238884 3
247 1 6.30513 4.64506 23.1377 -0.0188506 -0.00189403 0.00209114 3
257 1 6.82891 3.14733 23.3193 -0.00551546 -0.00394825 0.0285136 3
256 1 6.75325 0.389904 23.6183 0.00317782 0.010979 0.000670857 3
234 1 5.13458 5.3414 23.8385 0.00986067 -0.00288792 0.036572 3
246 1 5.93651 1.68195 23.7938 0.0244911 -0.0411875 0.0245262 3
207 1 2.8033 5.58825 24.9466 -0.00421066 0.023354 0.0166833 2
232 1 5.33788 0.460884 27.0208 0.00721587 -0.0279304 0.043348 2
233 1 5.44821 5.86409 25.1218 0.0172121 -0.00699002 0.00681693 2
217 1 3.98846 6.05086 25.6766 0.0344548 0.0269827 0.0143377 2
274 1 9.04375 4.12513 22.2299 0.0091263 0.00786828 0.0151219 3
272 1 9.08123 1.59052 22.7423 0.020972 -0.0120572 0.00547 3
273 1 8.26099 2.92151 22.7274 -0.0165209 0.0224809 0.017132 3
271 1 8.31717 0.315173 22.8879 0.016124 0.00406016 0.0175722 3
179 1 -2.32281 8.77564 22.1436 0.0176928 -0.00758448 0.00078582 3
155 1 -5.70185 6.33439 22.5138 0.00742661 -0.00677176 0.0176843 3
178 1 -2.91869 6.66557 23.2696 -0.0227157 0.0190703 0.0032436 3
195 1 -1.42149 6.71723 23.722 -0.00538419 0.0169206 0.00766549 2
156 1 -4.79018 7.57846 22.5965 -0.0174692 0.00935879 -0.00356256 3
168 1 -3.36063 7.79603 22.4712 -0.0237794 -0.00222197 0.00420357 3
196 1 -0.0818669 7.61611 22.7095 -0.00375028 0.011391 0.00568715 2
235 1 4.03046 6.4148 23.4461 0.0211111 0.0134277 0.0195998 3
248 1 5.95272 7.18529 22.3412 0.00761925 0.0176756 0.00702315 3
218 1 2.5408 6.55865 23.7769 0.00919213 -0.0147759 0.0117937 3
236 1 4.53862 7.24328 22.3421 -0.00162251 -0.00325894 0.000397656 3
208 1 1.45983 7.48316 22.9057 -0.0243304 0.0146928 -0.00335704 3
204 1 3.00126 -3.2687 28.4796 0.0139065 0.0152758 0.0438046 2
216 1 3.74489 -0.376442 29.1815 -0.0149125 0.0163525 0.0695526 3
165 1 1.41724 -0.836642 32.3238 0.071226 0.00240535 0.0455967 2
215 1 4.03237 -2.9125 29.3243 0.0258104 -0.00833367 0.0119025 3
175 1 2.07083 -2.07767 32.7916 0.0453285 0.00457763 0.0466656 2
188 1 2.71455 -2.87089 30.2553 0.00352624 -0.00652974 0.0340929 2
205 1 4.34508 -1.4698 29.9065 -0.0261559 0.0100945 0.0224977 3
189 1 2.90051 -2.22002 31.6013 0.0532497 0.00333736 0.073039 3
190 1 3.68315 -0.855106 31.2102 0.0401678 -0.00243858 0.0537806 3
166 1 0.0578406 0.575244 30.5053 0.0135732 -0.0562158 0.0652832 2
206 1 3.50913 1.24834 28.962 0.00459079 0.0292484 0.0468125 3
176 1 1.31582 0.18143 31.4991 0.0228171 0.00345037 0.0200376 3
191 1 2.66419 0.384209 30.8808 0.0400654 0.00595569 0.0225553 3
192 1 2.99258 1.44498 30.1671 -0.001112 0.0054843 0.0015185 2
