ITEM: TIMESTEP
46100
ITEM: NUMBER OF ATOMS
168
ITEM: BOX BOUNDS pp pp pp
-1.4715758017245314e+01 1.5057610017245315e+01
-1.2710055654020760e+01 1.2664508654020761e+01
-5.0001035148846022e+01 1.0000103514884636e+02
ITEM: ATOMS id type x y z vx vy vz c_coord
92 1 -10.9961 -9.23432 19.6111 -0.00907625 -0.00892036 0.0131467 3
93 1 -10.8803 -6.75869 20.2526 0.030333 -0.014861 -0.00942825 3
103 1 -9.62424 -9.35347 19.8924 0.00224563 -0.0130252 0.0201554 3
104 1 -8.61009 -8.00104 20.0649 0.00153394 0.000574574 -0.00375373 3
105 1 -9.40642 -6.83713 20.0871 0.0169047 0.00412963 -0.0041527 3
122 1 -7.25626 -8.02982 19.8849 0.0106012 0.0280445 0.00561264 3
132 1 -6.51426 -9.29771 20.0723 0.015058 -0.013649 0.0190888 3
143 1 -5.16447 -9.13567 19.9611 0.00579268 -0.0195017 0.0154966 3
172 1 -2.36165 -9.21452 19.8065 -0.02523 0.00029694 -0.00545429 3
183 1 -0.960803 -9.30618 20.1921 0.00720881 -0.00749046 0.00200354 3
162 1 -3.10237 -7.83204 19.5573 -0.0104845 -0.0164645 -0.000257216 3
144 1 -4.59931 -7.96643 19.6273 0.00570648 -0.0149245 0.00533589 3
133 1 -6.48519 -6.75907 20.1487 -0.00482168 0.0214515 0.0112063 3
145 1 -5.05801 -6.63666 20.0409 0.000847421 0.00875184 0.00468435 3
173 1 -2.35118 -6.85555 20.388 -0.0197666 -0.025966 -0.031519 3
184 1 -0.0706713 -8.38415 20.5989 0.00790478 0.000829247 -0.00274541 3
185 1 -1.21513 -7.42388 21.027 0.0382761 -0.00108347 0.00801392 3
212 1 1.84703 -9.25201 19.9677 -0.00766154 0.00920927 0.0149597 3
223 1 3.30884 -9.14504 19.7738 0.0107762 0.0108184 0.0169606 3
224 1 4.08492 -7.99747 19.8053 0.0139183 -0.0180309 0.00566723 3
242 1 5.61321 -8.05797 19.9886 0.00768781 0.00604015 -0.000815597 3
252 1 6.1091 -9.33813 20.1111 0.0108116 0.00900274 0.00566154 3
202 1 1.21086 -8.14283 20.3804 -0.0199204 -0.0304389 -0.0318734 3
225 1 3.29081 -6.76126 19.8181 0.0159954 0.0179842 0.00943156 3
213 1 1.77137 -6.92478 20.2078 0.0113975 0.00398814 0.00725524 3
253 1 6.3186 -6.80652 20.4535 -0.0208536 0.00773814 0.0116357 3
263 1 7.50249 -9.40688 20.2465 -0.0199383 -0.00265494 -0.00285995 3
265 1 7.65062 -7.01554 20.7692 0.0168744 0.013584 0.00865185 3
264 1 8.28226 -8.09937 20.2956 -0.00505411 -0.00689263 0.0250967 3
282 1 9.66405 -7.94954 20.184 0.00645785 -0.0155026 0.0200867 3
292 1 10.427 -9.13497 20.0446 -0.00240231 -0.0131296 0.0224169 3
293 1 10.6024 -6.82727 20.3855 -0.00853327 0.0106106 0.0154645 3
94 1 -10.7444 -4.3046 20.1515 -0.00974437 0.00237453 0.00900897 3
95 1 -10.8302 -1.87942 19.9705 0.0160706 -0.0152525 0.0081908 3
106 1 -8.5497 -5.6932 20.013 0.0126206 -0.00460038 0.0164139 3
107 1 -9.36545 -4.45933 19.8443 -0.00270346 -0.00249858 0.00471416 3
109 1 -9.25784 -2.06834 19.9827 0.00325959 -0.00858715 0.00810881 3
110 1 -8.60272 -0.792706 19.5072 -0.011236 0.00115069 -0.034477 3
108 1 -8.51159 -3.28989 20.162 0.0233194 0.0275648 0.00901219 3
124 1 -7.05857 -3.17456 20.0614 0.0222667 0.00329221 -0.00927973 3
125 1 -7.08095 -0.66101 19.4761 -0.000866271 0.0188804 -0.0369303 3
123 1 -7.25013 -5.63254 19.864 -0.00738148 -0.00507846 0.0175239 3
146 1 -4.44247 -5.38414 20.7051 0.00918744 0.00410895 -0.0080819 3
134 1 -6.41128 -4.40637 20.2256 0.00986203 -0.00502628 0.0263208 3
147 1 -5.0609 -4.25072 20.7324 0.0114146 -0.00660697 -0.00554349 2
135 1 -6.3686 -1.77752 20.1486 0.0264895 0.0217316 -0.0532321 3
163 1 -3.30033 -6.04196 21.5033 0.00895829 0.00449787 -0.0248075 3
149 1 -4.48802 -0.687784 21.9984 0.0283499 0.0166149 -0.00243651 2
150 1 -5.10505 -0.871088 20.3969 -0.00215288 0.0443609 0.0208826 3
226 1 3.94911 -5.59662 19.909 0.0209554 0.000810473 -0.0231463 3
243 1 5.57269 -5.71263 20.0888 -0.00685507 -0.00982626 0.016023 3
254 1 6.1961 -4.64185 20.1034 -0.00173898 -0.0040204 0.00547682 3
203 1 1.21085 -6.03428 21.2178 0.0102781 0.00820059 -0.013732 2
244 1 5.25302 -3.58135 19.7438 0.0398147 -0.00857578 0.0550905 3
227 1 2.92392 -4.45771 20.0406 0.0119669 0.0171942 -0.0239864 3
214 1 1.8471 -4.65322 20.889 0.0201643 -0.00427263 -0.0294437 2
255 1 6.26879 -2.46154 19.402 0.00846416 -0.0105944 -0.0265425 3
228 1 3.98201 -3.45484 20.5513 -0.0159875 -0.0238625 -0.0293877 3
245 1 5.6099 -1.25268 19.6721 0.0139104 -0.00947128 -0.0692562 2
229 1 3.49434 -2.90974 21.708 -0.030589 -0.0380893 -0.0201275 2
269 1 7.65677 -2.22234 20.0577 -0.00539753 -0.0239776 -0.0202073 3
267 1 7.63722 -4.62991 20.5928 0.0138083 0.000930496 0.00196874 3
283 1 9.79873 -5.67349 20.2816 -0.00839328 0.0185188 -0.00751552 3
284 1 9.93154 -3.25554 20.0354 -0.0118021 0.0233525 -0.0051101 3
285 1 9.81991 -0.724241 19.6623 -0.00633904 0.00872979 -0.0110931 3
294 1 10.5597 -4.46512 20.254 -0.0275275 0.00521965 0.00186327 3
295 1 10.4652 -1.87753 19.8009 0.0122137 0.0347591 -0.00362177 3
268 1 8.48744 -3.43096 20.4065 -0.00726286 0.0054116 -0.0114907 3
270 1 8.24334 -0.905457 19.5814 0.00455034 -0.00584081 -0.0552929 3
266 1 8.41973 -5.77917 20.6478 0.02173 -0.00167261 -0.0185803 3
96 1 -10.7273 0.573113 19.8922 -0.00351967 0.00611963 -0.0232001 3
97 1 -10.8636 3.07717 20.0397 0.0134442 -0.0110057 0.00804854 3
98 1 -10.8716 5.61325 20.0324 -0.0181343 0.0151725 -0.00052298 3
111 1 -9.30117 0.465626 19.3075 -0.0191349 -0.0192184 -0.0173409 3
113 1 -9.44282 3.1907 19.6085 0.0348428 -0.023525 0.0216659 3
115 1 -9.38571 5.72521 19.6834 0.00920556 -0.0129333 0.0119173 3
112 1 -8.7337 1.81281 18.9588 0.00310471 -0.00486952 -0.0105689 3
114 1 -8.902 4.50717 19.3643 0.00977858 -0.0210549 0.0186099 3
126 1 -7.33799 1.51925 18.8436 -0.00312865 -0.0156869 -0.0307219 3
127 1 -7.51759 4.20458 19.2174 0.00777693 -0.0316001 -0.0207971 3
138 1 -6.72264 5.51654 19.4456 -0.00993304 0.00949397 -0.0145332 3
155 1 -5.33319 5.45596 19.5388 0.0181893 -0.0292276 -0.0394701 3
137 1 -6.8075 2.84766 19.2918 -0.00866244 -0.017895 -0.00834619 3
154 1 -5.08564 4.17533 20.2686 0.0094202 -0.0454746 -0.0276623 3
153 1 -5.38431 2.96807 19.3439 0.00926749 -0.00928652 -0.0351429 3
136 1 -6.3076 0.291808 18.854 0.0301894 0.010301 -0.0344799 3
151 1 -4.92265 0.191625 19.2325 0.00807002 -0.0166227 0.00566326 3
152 1 -4.73209 1.68779 19.3323 -0.0195938 -0.0100984 -0.022148 2
167 1 -4.01968 4.6473 21.1892 0.00835939 -0.020044 -0.0165913 3
178 1 -3.09715 5.7304 20.9616 -0.0121774 -0.0318166 -0.0411088 3
258 1 6.28755 5.4225 19.7166 0.0110807 0.0131309 -0.00253946 3
247 1 5.50114 4.23935 20.0737 0.00533419 0.00709148 -0.00902111 3
257 1 6.24221 2.95015 19.9683 0.00176609 -0.0155249 -0.00657866 3
246 1 5.57347 1.59694 20.1174 0.0216244 -0.00621487 -0.0293535 2
256 1 6.17152 0.216176 20.015 -0.0149116 -0.012901 -0.0366074 3
234 1 5.14503 4.43123 21.3593 -0.0213382 -0.0262504 -0.0116769 3
235 1 4.63467 5.7948 21.5132 -0.0256889 0.00520451 -0.0288905 3
271 1 7.64448 0.313696 19.8491 0.0235408 -0.0210539 -0.0254113 3
273 1 7.73588 2.96804 20.2335 -0.0073188 -0.0279993 -0.0112191 3
275 1 7.79255 5.58015 20.0197 -0.0307896 -0.0103994 -0.0120713 3
286 1 9.93261 1.76336 20.058 0.0084709 -0.00654162 -0.0195372 3
287 1 9.88399 4.3608 20.2015 -0.000790506 0.00875278 -0.0015199 3
296 1 10.5876 0.522486 19.6566 0.0104368 -0.00720562 0.0116038 3
297 1 10.5803 3.00504 20.0332 0.0240263 -0.0219948 -0.0219874 3
298 1 10.5115 5.58055 20.0958 0.00370095 -0.00802212 -0.00264162 3
274 1 8.50555 4.30697 20.154 0.00289918 -0.0216519 0.0123959 3
272 1 8.39162 1.70843 19.8884 0.00833415 -0.00994741 -0.0109406 3
99 1 -10.9133 7.93436 19.9139 -0.0106744 0.00938077 -0.000542225 3
116 1 -8.78409 6.99122 19.4984 -0.0219431 -0.0194349 -0.00804178 3
117 1 -9.56537 8.20251 19.6302 -0.017438 -0.00877314 -0.0287679 3
118 1 -8.66729 9.25192 19.9954 -0.00632935 -0.000513764 -0.0050571 3
128 1 -7.34216 6.80427 19.5465 0.0109384 0.00740195 0.0148155 3
129 1 -7.40527 9.35025 20.0203 -0.00325242 -0.00184602 0.0111395 3
139 1 -6.79537 8.15634 19.5167 -0.015496 -0.0107355 0.018843 3
158 1 -4.4222 9.26708 19.6579 0.00857544 -6.37341e-05 0.0204777 3
169 1 -2.99689 9.13832 19.7682 -0.0110363 -0.00623365 0.013971 3
198 1 -0.0389404 9.21918 20.2598 0.0194631 -0.00406 -0.00582796 3
197 1 -1.02224 8.02521 20.404 -0.00218766 -0.0117923 -0.00949213 3
179 1 -2.41564 7.87022 19.85 0.00122025 0.000227571 -0.0283708 3
157 1 -5.32538 8.15868 19.7432 -0.00242473 0.00428783 0.00519948 3
156 1 -4.7482 6.7976 19.6633 -0.00878019 -0.0089506 -0.00161852 3
168 1 -3.24194 6.73819 19.9889 -0.00496223 -0.00450563 -0.0346536 3
196 1 -0.281584 6.86983 20.9845 0.00171124 -0.0174519 -0.00495844 2
209 1 1.29595 9.09308 20.1295 0.00164894 0.00550303 0.00055428 3
238 1 4.18968 9.16368 20.2461 0.00609457 -0.0150873 0.0184776 3
249 1 5.60688 9.26279 20.2753 0.000469324 -0.00686341 0.00690294 3
259 1 6.32779 8.01278 19.8801 0.00134754 -0.0169017 -0.0173119 3
237 1 3.58702 7.96824 20.2181 0.0123892 -0.0132623 -0.00821211 3
219 1 2.19455 7.80454 20.0421 -0.00680597 -0.0125627 -0.00306389 3
248 1 5.68976 6.71225 19.6012 -0.0236113 0.0172522 0.0123093 3
236 1 4.47823 6.74363 20.1767 -0.0265691 -5.62274e-05 -0.0189117 3
208 1 1.21263 6.9169 20.7028 -0.0273229 0.0146751 0.000330448 2
277 1 7.6763 7.97488 19.9909 0.00213874 -0.00612535 0.0136654 3
278 1 8.34615 9.23647 20.1386 -0.00683503 0.00803514 0.00188249 3
288 1 9.86038 6.95395 19.7895 -0.00613734 0.00401629 -0.00301415 3
289 1 9.75432 9.20223 20.2239 -0.00715115 -0.00471577 -0.00874639 3
299 1 10.5501 8.08813 19.7449 -0.0230198 -0.0142473 -0.00213621 3
276 1 8.47468 6.78837 19.8498 -0.0139736 -0.00797045 0.00561616 3
186 1 -1.15712 -7.49761 22.6145 0.026026 -0.00859368 0.006553 2
187 1 -1.78944 -6.61182 23.4732 -0.00372463 -0.00539805 -0.0127911 2
148 1 -4.47395 -0.629922 22.9467 -0.0138652 -0.0218943 0.0289382 2
164 1 -4.29957 -0.417012 24.5988 0.0030811 0.00294986 0.0206341 2
174 1 -3.08175 -5.66221 22.8436 -0.00740034 0.00834118 -0.0228415 2
230 1 3.27351 -3.12964 23.2414 -0.00515617 -0.0481982 -0.0186689 2
231 1 3.47997 -2.32582 24.3555 -0.00582343 -0.0346118 -0.0353133 2
232 1 3.29595 -1.46494 25.3887 -0.0142835 -0.00944089 -0.0402013 2
177 1 -4.62037 4.48643 22.6644 -0.00273746 0.0289649 -0.0131662 2
193 1 -3.79651 4.68727 23.8157 -0.00601299 -0.036 0.000293186 2
194 1 -2.63776 5.66558 23.5713 0.00510936 0.00138636 -0.0035608 2
195 1 -2.47669 6.24283 22.2411 -0.0116734 -0.0139445 -0.0550604 2
233 1 6.27905 4.42818 22.0701 -0.0167956 -0.00642261 -0.0349302 2
217 1 7.14752 4.97487 22.7514 0.0189602 0.00135984 -0.0357331 1
218 1 5.40699 6.25842 22.5382 -0.0124409 -0.0109701 -0.0110971 2
207 1 6.43074 6.55676 23.3717 0.00476021 -0.00912586 -0.0272229 1
204 1 5.64898 -3.32597 33.0854 0.0213589 -0.00405059 0.0201258 2
215 1 6.59627 -2.85368 33.898 0.00533881 -0.0153732 0.00721557 3
216 1 6.46198 -0.450505 33.9797 -0.0130551 -0.0179332 -0.0091489 3
188 1 6.57528 -4.22101 34.3537 -0.0106174 -0.00912919 0.00680759 1
205 1 7.31651 -1.44017 34.52 0.0356562 -0.00604412 0.0352389 3
189 1 7.40101 -2.03075 36.2276 -5.71689e-05 0.0230076 0.018744 2
165 1 5.48189 -0.74258 37.2109 0.0284376 0.0107165 0.0149287 2
175 1 6.62666 -1.91612 37.2882 0.0192923 0.0189528 0.00649113 2
190 1 8.14189 -0.939275 35.7067 -0.00495951 -0.0121395 0.0335864 3
206 1 5.90786 0.964195 34.2995 -0.0237644 0.00907909 0.0173477 3
192 1 7.08711 1.34554 35.1387 0.00179539 -0.0406506 0.0251109 2
176 1 6.37347 0.450703 37.1934 0.0316897 0.0036909 -0.0206641 3
166 1 5.57615 1.82055 37.6678 0.0233193 -0.0136796 0.00442151 2
191 1 7.48846 0.307159 36.136 0.0279565 0.0121897 0.0155928 3
