ITEM: TIMESTEP
32000
ITEM: NUMBER OF ATOMS
168
ITEM: BOX BOUNDS pp pp pp
-1.4715758017245314e+01 1.5057610017245315e+01
-1.2710055654020760e+01 1.2664508654020761e+01
-5.0001035148846022e+01 1.0000103514884636e+02
ITEM: ATOMS id type x y z vx vy vz c_coord
92 1 -10.729 -9.2673 20.1422 0.00309562 0.00131356 -0.0238653 3
93 1 -10.7999 -6.82493 20.0155 0.00842567 0.0127744 0.00260193 3
103 1 -9.30136 -9.06929 20.2854 0.0148235 0.0174129 -0.0212319 3
104 1 -8.61977 -7.91465 20.7462 0.0208518 0.0151821 -0.0510559 3
105 1 -9.30629 -6.60463 20.4049 0.010354 -0.006369 -0.0228806 3
122 1 -7.19057 -8.14155 20.6735 0.00345087 0.0205452 -0.0358826 3
132 1 -6.58386 -9.32997 20.0209 -0.00360114 -0.0160698 -0.0105794 3
143 1 -5.14992 -9.26759 20.5595 0.0100187 0.021262 0.00710237 3
172 1 -2.23547 -9.12346 20.353 0.00257741 -0.00784616 -0.0211721 3
183 1 -0.738904 -9.02834 20.3599 -0.00361904 0.00790026 0.0138026 3
162 1 -2.83416 -7.97609 20.6361 -0.00195754 0.00595794 -0.0133138 3
144 1 -4.32847 -8.11789 20.7782 -0.0154565 0.0084799 -0.0169561 3
133 1 -6.52681 -6.97774 21.14 0.00364183 0.0211972 -0.0183919 3
145 1 -5.00415 -6.86417 21.2489 0.0120321 0.00266797 -0.00337843 3
173 1 -2.2746 -6.67695 21.5859 0.000169874 -0.00328506 0.000192059 3
184 1 -0.0724162 -7.96245 21.2026 -0.00212977 -0.00590144 -0.00929472 3
212 1 1.98691 -9.13938 20.4344 -0.0064205 0.00146007 -0.01355 3
223 1 3.32211 -9.1741 20.5187 -0.0022278 0.013088 -0.0242072 3
224 1 4.26141 -8.31437 21.3346 -0.0188706 0.00990107 -0.019988 3
242 1 5.73484 -8.40541 21.3587 -0.0167526 -0.00220943 -0.0107565 3
252 1 6.35613 -9.31008 20.4439 0.0142733 -0.0069407 -0.00629168 3
202 1 1.29245 -7.8794 21.2553 -0.0307555 0.00731392 0.004026 3
253 1 6.69241 -7.39885 21.9867 0.00983354 0.0135081 -0.00985703 3
263 1 7.7265 -9.32549 20.3297 0.00421618 -0.001545 0.000861574 3
264 1 8.49283 -8.25445 20.776 -0.0100715 0.00839414 -0.0306831 3
282 1 9.66011 -7.93247 20.0054 -0.0168484 0.014864 -0.0434873 3
292 1 10.403 -9.21093 19.8126 -0.00993385 -0.00380443 -0.0467854 3
293 1 10.4489 -6.82737 19.9422 0.0191797 0.00616468 -0.0198634 3
265 1 8.04908 -7.27757 21.5666 -0.011158 -0.00253566 -0.0148074 3
94 1 -10.9203 -4.33972 20.411 -0.002224 0.0170613 -0.0178805 3
95 1 -10.7952 -1.87799 20.1462 0.0112922 0.00785808 -0.00400871 3
106 1 -8.68657 -5.58591 20.9588 0.020486 0.00131553 -0.0243885 3
107 1 -9.49085 -4.32376 21.0224 0.0100808 0.00640909 0.00829874 3
109 1 -9.53994 -1.91598 20.8602 -0.00415653 0.0143948 0.00721893 3
110 1 -9.23488 -0.57934 21.5202 0.0189982 0.00941681 0.00384483 3
108 1 -8.90728 -3.13621 21.1909 -0.00996758 0.0011422 -0.0103029 3
124 1 -7.51154 -3.52863 21.9823 -0.0248198 0.0144629 -0.019722 3
123 1 -7.24422 -5.84248 21.5908 0.00323615 0.0186404 -0.0234603 3
146 1 -4.65756 -5.69242 21.9919 0.0127512 -0.0101555 -0.0169266 3
283 1 9.9703 -5.83681 20.799 -0.00258681 0.00871894 -0.0116853 3
284 1 10.1029 -3.38233 20.7276 0.0123359 0.0101293 -0.029665 3
285 1 9.83503 -0.862594 20.6307 -0.00321948 0.0296547 -0.00123585 3
294 1 10.6577 -4.67939 20.4094 0.00433794 0.0128612 -0.0106364 3
295 1 10.5173 -2.13762 20.3887 -0.010383 0.0198465 -0.0135115 3
268 1 9.03514 -3.29164 21.6664 0.0153823 -0.013862 0.0037001 3
270 1 8.97464 -0.639137 21.5897 0.0115936 0.00425277 0.00842243 3
266 1 8.85235 -5.95704 21.6162 -0.0385985 0.0127251 -0.0339668 3
96 1 -10.9964 0.629842 20.2502 -0.00667875 -0.00451296 0.0206228 3
97 1 -10.9833 3.0943 20.3587 -0.0288275 -0.00794308 0.0061155 3
98 1 -10.8428 5.4694 20.2108 0.0144489 -0.0215591 3.93549e-05 3
111 1 -9.71638 0.674136 20.9266 -0.0161767 0.0247854 0.00642062 3
113 1 -9.69076 3.07993 20.7541 0.00297344 0.00635498 -0.00518824 3
115 1 -9.52885 5.52374 20.712 0.017953 -0.0239341 -0.0208963 3
112 1 -9.0266 1.9182 21.1943 0.00136386 0.0238065 0.00148119 3
114 1 -9.06494 4.21121 21.3001 0.00737008 -0.0111606 0.00527881 3
286 1 9.96876 1.55448 20.6197 -0.0168464 -0.00450254 -0.0011094 3
287 1 9.92748 4.16385 20.5039 0.0102709 -0.00868288 -0.0160912 3
296 1 10.537 0.385471 20.3535 -0.00294932 0.000576928 -0.011884 3
297 1 10.5761 2.85532 20.5386 -0.00925573 -0.00181177 -0.00910052 3
298 1 10.6088 5.42495 20.3267 -0.0171009 -0.0143525 -0.00885912 3
274 1 8.80808 4.27653 21.2333 -0.00663175 -0.00744661 -0.0138966 3
275 1 8.00894 5.53252 21.3554 -0.0159059 -0.0209617 -0.029026 3
272 1 8.92839 1.85636 21.6169 -0.0199449 0.00190731 0.0122037 3
273 1 8.46 3.21154 21.968 -0.0155395 -0.0149811 -0.0159506 3
99 1 -10.7594 7.98642 20.17 -0.0107793 0.0110148 -0.00734316 3
116 1 -8.85791 6.66617 21.1426 0.0146797 -0.0238997 -0.0475481 3
117 1 -9.51618 8.08131 20.7778 0.0109264 -0.0364752 -0.0525036 3
118 1 -8.61901 9.03743 20.2279 -0.00217485 -0.00552409 -0.0254721 3
128 1 -7.34375 6.71131 21.4516 0.0161447 -0.0128025 -0.0130881 3
129 1 -7.22168 9.05347 20.2151 0.00153394 -0.01863 -0.00542662 3
139 1 -6.6425 7.91368 20.9768 0.0203001 0.00120826 -0.0289633 3
158 1 -4.5794 9.03198 20.2697 0.0326554 0.00879582 0.0178427 3
169 1 -3.11346 9.19118 20.5161 -0.0106627 0.000166628 0.000868929 3
198 1 -0.173525 9.12332 20.7949 -0.0121949 0.022473 0.0125032 3
197 1 -1.04541 7.92988 21.2454 0.0179135 -0.00960823 -0.025088 3
179 1 -2.54604 8.06603 21.4014 -0.00838203 0.0010539 0.00133106 3
157 1 -5.20434 7.7284 20.53 0.00369644 0.0295242 -0.0199107 3
156 1 -4.83544 6.63867 21.5085 0.0072674 0.0301177 -0.0193134 3
196 1 -0.0842199 6.99397 21.7964 0.00903296 -0.0248706 -0.000472161 2
209 1 1.22093 9.09139 20.6824 0.0173497 0.00443683 -0.0104884 3
238 1 4.03946 9.20823 20.6276 0.00616085 0.0102012 -0.00160034 3
249 1 5.59011 9.32135 20.6941 -0.00455475 0.00398208 -0.00182049 3
259 1 6.32776 8.03875 20.9259 0.0265148 0.00182251 -0.00522542 3
237 1 3.53418 8.21138 21.4131 -0.00707851 0.0015986 0.00856849 3
219 1 2.05987 8.05219 21.3936 -0.0217016 -0.0135128 -0.00894533 3
248 1 5.83578 6.74451 21.5767 0.000615007 0.0135932 0.00112059 3
277 1 7.69573 7.8833 20.3842 -0.0041509 -0.0145985 -0.0205589 3
278 1 8.40695 9.1132 19.9553 0.00596315 -0.00242017 -0.0231083 3
288 1 9.75927 6.60099 20.105 -0.021861 -0.008427 -0.0419863 3
289 1 9.69496 9.15826 19.5847 0.00583524 -0.00767028 -0.0153344 3
299 1 10.4418 7.82805 19.6887 -0.00914109 -0.0261103 -0.0219476 3
276 1 8.38175 6.68047 20.5692 -0.0219538 -0.012507 -0.0508577 3
185 1 -0.863521 -6.61266 22.0483 -0.00879678 -0.01913 -0.0115429 2
225 1 3.84663 -7.13279 22.059 -0.0192123 0.0102341 -0.0128073 3
213 1 2.15923 -6.96665 22.1695 -0.00082911 -0.0210356 -0.0172719 3
125 1 -7.94757 -0.917421 22.1517 0.0121162 0.0186008 -0.0149489 3
135 1 -7.2352 -2.37948 22.7089 0.0245565 0.00173045 -0.0137402 3
163 1 -3.20311 -5.45778 22.5203 -0.0137509 0.0106626 -0.000304344 3
134 1 -6.68544 -4.74146 22.0444 -0.00543117 0.035876 -0.03995 3
147 1 -5.45811 -4.59513 22.7177 0.0168453 0.0125762 -0.0115624 3
148 1 -5.22686 -3.86589 23.9484 -0.0122952 0.00877918 -0.0305846 3
149 1 -6.11999 -2.51205 23.744 0.0110509 0.0111592 -0.00448901 3
150 1 -5.97319 -1.17977 24.0398 0.00515918 -0.00196039 0.011325 2
164 1 -3.92537 -4.23275 24.7595 -0.0172097 -0.0116964 0.00160804 3
174 1 -2.76641 -4.66558 23.6614 -0.00675954 -0.0183987 -0.00945491 2
187 1 -0.931344 -4.67526 23.8929 0.00352826 0.000895411 0.00166959 1
186 1 -0.0249778 -5.45868 23.1817 -0.0203315 -0.00411871 0.00412998 1
226 1 4.93076 -5.93333 22.1431 0.0012526 0.012173 -0.0412139 3
203 1 1.86703 -5.73247 22.8658 0.0339871 -0.0134821 -0.0175577 2
243 1 6.40994 -5.92514 22.1406 -0.00586745 0.00993926 -0.0338573 3
254 1 7.27426 -4.71405 22.6326 -0.0143854 0.0206987 -0.0279775 3
244 1 7.15596 -3.54454 23.3759 -0.0340955 -0.00721122 -0.0141097 3
227 1 4.75254 -4.57652 22.9712 0.0315645 0.00710183 -0.0268417 3
228 1 5.8124 -3.49046 23.7872 0.00395289 0.0369211 -0.0203246 3
229 1 6.22606 -2.52364 24.9737 0.0112639 -0.005323 -0.0120517 2
214 1 3.38265 -4.88367 22.972 -0.00590476 0.0135005 -0.0485987 2
230 1 6.98747 -1.31006 25.4241 -0.00180835 0.0176876 -0.0308423 3
231 1 6.63576 -0.882772 26.738 0.000676141 0.019091 -0.0282606 2
232 1 6.26424 -0.762933 27.9598 -0.011731 0.0235082 -0.0110702 2
245 1 7.79603 -0.787118 24.2533 -0.00840983 0.0230965 0.00263104 3
255 1 7.94403 -1.94453 23.3806 -0.0177782 0.0134302 -0.0171885 3
267 1 8.58097 -4.6481 22.1745 -0.016542 0.0152372 -0.0154461 3
269 1 8.6972 -1.96433 22.2209 0.00611487 0.0143199 -0.0186455 3
127 1 -7.90132 4.28884 22.2654 0.0157828 -0.00796144 -0.0201645 3
126 1 -7.92814 1.73225 22.1852 0.0249559 0.00834752 -0.0202688 3
136 1 -7.32751 0.358965 22.4585 0.0238297 0.00371997 -0.0165596 3
137 1 -7.30291 2.91142 22.6523 0.0188257 -0.00967031 -0.0105407 3
138 1 -7.04477 5.41867 22.202 0.0434861 0.00910554 -0.0148536 3
151 1 -6.43447 0.303414 23.5905 0.00720652 -0.00230488 0.00641465 3
153 1 -6.15674 3.02996 23.4865 0.0207083 0.0031059 -0.0106277 3
154 1 -5.3759 4.37141 23.2216 -0.00976391 -0.01765 -0.0230812 3
152 1 -6.16332 1.64756 24.0645 0.00434883 0.0128783 0.0243387 2
167 1 -4.04094 5.02398 23.8129 -0.0301153 -0.00424765 -0.00314723 3
177 1 -3.33764 4.46348 24.8614 -0.0313844 -0.0129014 -0.00758996 2
193 1 -2.28113 5.23263 25.8062 -0.00818004 -0.0225054 -0.0345397 2
155 1 -5.5642 5.36541 22.3289 0.0306376 -0.00683819 -0.0111848 3
258 1 6.7353 5.62135 22.0264 -0.013999 0.011469 -0.0370346 3
247 1 6.61714 4.63606 23.1023 -0.00588435 0.0118036 -0.0301452 3
234 1 5.51155 5.36396 23.8354 0.00606209 -0.00892015 -0.0166461 3
233 1 5.52025 5.48774 25.2518 0.0355329 -0.00017455 -0.0100525 2
257 1 7.49911 3.2929 23.0643 -0.0210835 -0.00972528 -0.00255423 3
217 1 5.0332 6.27637 26.1041 0.00659697 -0.00940022 -0.0208535 2
246 1 7.64192 2.05509 23.56 -0.0198936 -0.0137489 -0.0179558 2
256 1 7.99157 0.611828 23.5873 -0.00774974 0.0147313 -0.00223615 3
271 1 8.53419 0.629583 22.1951 0.000335732 -0.0141984 -0.0118843 3
194 1 -2.38456 6.59598 25.4106 -0.0348119 -0.00874711 -0.016408 2
178 1 -3.71792 6.44843 23.4003 0.00605803 0.00589376 -0.00659309 3
195 1 -2.98045 7.36804 24.1686 -0.00908328 0.00869943 -0.0149232 2
168 1 -3.71682 7.18667 22.0192 0.0147703 0.00833347 -0.025809 3
208 1 1.37879 6.93458 22.1511 -0.00169789 -0.0156577 -0.00349571 2
235 1 4.5646 6.58247 23.3348 -0.00546327 0.0168702 0.00136533 3
207 1 4.4409 7.7633 25.3732 0.0176902 -0.022681 0.00130824 2
218 1 4.31405 7.85363 23.9758 0.0414388 0.0249959 -0.00270693 2
236 1 4.51042 7.18552 22.0487 -0.0145371 0.0192738 -0.0213847 3
204 1 4.09788 -2.39564 31.1217 0.0516168 0.0194287 0.0229093 3
215 1 5.30442 -1.84908 31.7395 0.0159684 -0.0171015 0.016738 3
188 1 4.07844 -2.42841 32.6976 0.00524775 1.26513e-05 0.0355825 3
205 1 5.15535 -0.346696 32.2523 0.0278668 -0.000381904 0.0151431 3
189 1 5.06858 -2.14169 33.9466 0.0244576 0.0163137 0.0193436 3
190 1 5.36068 -0.440001 33.8325 0.0338489 -0.00754218 0.041293 3
216 1 4.84221 0.617178 31.3487 -0.0109316 0.0162897 0.0440581 3
206 1 3.88017 1.68549 31.9699 -0.022389 -0.030735 -0.00839926 3
192 1 3.64058 1.70908 33.6558 0.00353758 -0.00873602 -0.0082905 2
166 1 2.37323 -0.407137 35.6411 0.0058479 0.0358233 0.0655436 2
176 1 3.88887 -0.428638 35.3943 0.00441173 0.043261 0.0391816 3
165 1 4.42551 -1.52554 36.3768 0.0451643 0.0137777 0.0408263 2
175 1 5.05702 -2.47215 35.4071 0.0127405 -0.042663 -0.00460905 2
191 1 4.46932 0.777435 34.3801 0.0580449 -0.0267008 0.0220003 3
