ITEM: TIMESTEP
3700
ITEM: NUMBER OF ATOMS
168
ITEM: BOX BOUNDS pp pp pp
-1.4715758017245314e+01 1.5057610017245315e+01
-1.2710055654020760e+01 1.2664508654020761e+01
-5.0001035148846022e+01 1.0000103514884636e+02
ITEM: ATOMS id type x y z vx vy vz c_coord
92 1 -10.8734 -9.25215 20.0004 0.00778351 0.00592125 3.23304e-06 3
93 1 -10.9268 -6.79158 20.0032 0.00924814 -0.00365894 0.000117528 3
103 1 -9.43051 -9.28794 20.0031 0.00497056 0.00356621 6.79377e-05 3
104 1 -8.72942 -8.0636 20.0112 0.014909 -0.00159766 0.000235122 3
105 1 -9.52858 -6.86812 20.0128 0.0123963 0.000897162 0.000332146 3
122 1 -7.31637 -8.11122 20.0131 0.0184836 -0.00246329 0.000277588 3
132 1 -6.54065 -9.29385 20.0084 0.0130851 -0.007902 0.000106104 3
133 1 -6.75206 -6.81574 20.008 0.00998557 0.0057812 6.81576e-05 3
143 1 -5.14507 -9.23086 20.0059 0.0144929 0.0114247 3.99389e-05 3
144 1 -4.5026 -7.97606 19.9981 0.0155247 0.00129037 -8.69065e-05 3
145 1 -5.32753 -6.79942 19.9918 0.00690789 -0.00235158 -5.03911e-06 3
162 1 -3.08608 -7.9652 19.9879 0.0100189 0.00699343 -0.000340772 3
172 1 -2.38032 -9.22917 19.9988 -0.00346511 0.00699159 -6.56637e-05 3
173 1 -2.50362 -6.68921 19.9485 0.00988062 0.0101526 -0.000965353 3
183 1 -0.970688 -9.28616 19.9951 -0.00128035 -0.00015209 -9.88251e-05 3
184 1 -0.441518 -8.0253 19.9753 -0.00833876 0.00538088 -0.000702398 3
185 1 -1.11135 -6.75515 19.9414 0.00327444 0.00394538 -0.0011329 3
202 1 0.965869 -8.05016 19.9758 -0.0088064 -0.00279533 -0.000522069 3
212 1 1.80556 -9.22526 19.9913 -0.00767036 0.000277899 -0.000339145 3
213 1 1.60298 -6.76684 19.9479 -0.00183457 -0.00187021 -0.00107266 3
223 1 3.19072 -9.31608 19.9944 -0.00115942 -0.000468368 -0.000252246 3
224 1 3.83401 -8.11316 19.9896 -0.00621136 0.000332414 -0.000553842 3
225 1 3.04557 -6.87846 19.9638 -0.00346909 -0.00186229 -0.000911295 3
242 1 5.31216 -8.08982 19.9996 -0.00202916 -0.00231616 -0.000344265 3
252 1 6.21936 -9.21163 20.0055 0.00307635 0.00308393 -5.33065e-05 3
253 1 6.00351 -6.81964 19.9971 0.00314506 -0.00491737 -0.000225481 3
265 1 7.44788 -6.66679 20.0076 -0.00297077 -0.0110356 -0.000193469 3
263 1 7.65854 -9.14402 20.0071 0.00582451 -0.0004768 1.91816e-05 3
264 1 8.29869 -7.85975 20.0107 0.00828221 -0.00107575 -2.4528e-05 3
282 1 9.76854 -7.94302 20.0076 0.00209371 -0.00280316 9.2537e-05 3
292 1 10.5244 -9.20387 20.0027 -0.00203824 -0.00308875 8.79116e-05 3
293 1 10.4325 -6.69126 20.0068 -0.0102297 0.00335796 0.000108883 3
94 1 -11.0205 -4.30508 20.0058 0.00739041 0.00401315 0.000293641 3
95 1 -10.9089 -1.87664 20.0072 0.0128975 -0.00214559 0.000239379 3
106 1 -8.96214 -5.59634 20.014 0.0120833 0.00503679 0.000409562 3
107 1 -9.59001 -4.34232 20.0121 0.021073 -0.000683972 0.000372299 3
108 1 -8.88833 -3.14643 20.0046 0.0080638 -0.000770499 0.000269358 3
109 1 -9.48029 -1.89595 20.0042 0.00630702 0.00610793 0.000234402 3
110 1 -8.82909 -0.672764 19.9923 0.0049279 0.000254349 0.000105832 3
123 1 -7.54366 -5.63291 20.0072 0.0132467 0.00859716 1.28511e-05 3
124 1 -7.49864 -3.15118 19.9787 0.0108712 0.00267338 -0.000435745 3
125 1 -7.47845 -0.654987 19.9566 0.0022657 -0.000238736 -0.000432095 3
134 1 -6.87009 -4.40171 19.9796 0.00773156 -0.00358861 -0.000338165 3
135 1 -6.84001 -1.89267 19.9403 0.0102513 0.00428164 -0.000946503 3
146 1 -4.63475 -5.56926 19.9495 0.00701726 0.000121462 -0.000703487 3
147 1 -5.4905 -4.4322 19.9384 0.0026481 0.00774183 -0.00103131 3
148 1 -4.86443 -3.14739 19.8758 0.012088 0.00905799 -0.00253529 3
149 1 -5.48207 -1.89215 19.8762 0.00344747 0.00192848 -0.00182877 3
150 1 -4.79643 -0.670434 19.8268 0.00874837 0.00557599 -0.00244116 3
163 1 -3.22122 -5.46582 19.9118 0.00867215 0.00623393 -0.00124426 3
164 1 -3.46599 -3.11868 19.8188 0.00293854 0.00694464 -0.00264545 3
165 1 -3.41122 -0.674601 19.7581 -0.00214677 0.0053333 -0.00272225 3
174 1 -2.63704 -4.22755 19.8417 0.00954999 0.00501317 -0.00214741 3
175 1 -2.79751 -1.89494 19.7567 3.13813e-05 0.00680705 -0.00291636 3
186 1 -0.512175 -5.46483 19.8852 -0.000203934 0.00473432 -0.0014769 3
187 1 -1.2156 -4.21485 19.8212 0.0116786 0.00713404 -0.00210976 3
188 1 -0.536855 -2.99626 19.763 -0.00287873 0.00581901 -0.00202561 3
189 1 -1.3683 -1.84212 19.7258 0.00910769 0.00168585 -0.00199426 3
190 1 -0.610376 -0.645791 19.7068 0.00618261 0.00427717 -0.00072477 3
203 1 0.906863 -5.47653 19.8951 0.00424751 -0.00139129 -0.00118833 3
204 1 0.930339 -3.02417 19.7875 0.00116154 0.00320517 -0.00190222 3
205 1 0.81577 -0.642285 19.7305 0.0150024 0.00130175 -1.81125e-05 3
214 1 1.67342 -4.26476 19.8553 0.00210464 -2.87027e-05 -0.00164264 3
215 1 1.67277 -1.80891 19.7699 0.0114659 -0.00550385 -0.00120247 3
226 1 3.75026 -5.64984 19.9448 -0.00267739 0.000568171 -0.00105538 3
227 1 3.07322 -4.36596 19.8929 -0.00444922 -0.00235631 -0.00152807 3
228 1 3.80436 -3.1278 19.8744 0.00122108 -0.00713713 -0.00142514 3
229 1 3.09759 -1.87729 19.8191 0.00210521 -0.00834137 -0.00173288 3
230 1 3.80847 -0.649909 19.8288 0.00793114 -0.00341613 -0.0017955 3
243 1 5.21303 -5.62159 19.9701 -0.000588439 -0.00844182 -0.00063609 3
244 1 5.26625 -3.10011 19.919 0.00185346 -0.00197968 -0.00118717 3
245 1 5.32378 -0.668676 19.8926 0.000392936 -0.000997766 -0.00183067 3
254 1 5.91848 -4.35295 19.9581 -0.00401969 -0.00307877 -0.00084809 3
255 1 6.05137 -1.88527 19.9279 0.00032666 0.00441255 -0.00145904 3
269 1 7.5108 -1.86636 19.9676 -0.00162375 0.00590814 -0.00108456 3
267 1 7.37203 -4.22992 19.9852 -0.00567138 -0.00312362 -0.000658988 3
266 1 8.16816 -5.43538 20.0054 -0.00674422 -0.00632581 -0.000257306 3
268 1 8.24244 -3.07632 19.9885 -0.0068711 0.0053089 -0.000749804 3
270 1 8.3457 -0.672619 19.9796 0.00332629 -0.00105674 -0.000820191 3
283 1 9.63505 -5.4703 20.0089 -0.00557498 0.00731334 -0.000104739 3
284 1 9.69031 -3.11012 20.0014 -0.00668936 0.00102638 -0.000332435 3
285 1 9.77419 -0.620674 19.9961 -0.00590164 0.00130506 -0.000522907 3
294 1 10.4655 -4.32724 20.0052 -0.0109591 0.0024955 -6.3835e-05 3
295 1 10.478 -1.86334 20.0001 -0.000916415 0.00196865 -0.000201604 3
96 1 -10.8868 0.576654 20.0062 0.0117481 0.00326174 0.000111711 3
97 1 -10.8904 3.06014 20.0059 0.0155628 -0.00900422 0.000204321 3
98 1 -10.8924 5.51817 20.0046 0.0158605 0.0123535 0.0002033 3
111 1 -9.45449 0.551283 20.0003 0.0018192 -0.00563139 0.000238328 3
112 1 -8.81869 1.81367 19.995 0.00593416 -0.00364614 0.000125879 3
113 1 -9.47117 3.05832 20.0057 0.00615556 -0.00651118 0.000182175 3
114 1 -8.91651 4.34757 20.0071 0.00268377 -0.00949096 0.000207259 3
115 1 -9.50885 5.60777 20.0115 0.00903796 -0.00217958 0.000297548 3
126 1 -7.43485 1.83697 19.9606 0.0129403 -0.00173994 -0.000738188 3
127 1 -7.53031 4.37727 19.9919 0.00337791 -0.00640091 -0.000198885 3
136 1 -6.81633 0.566475 19.9292 0.00420996 0.0015601 -0.000850156 3
137 1 -6.86937 3.13745 19.9584 0.00594496 0.00169476 -0.000687023 3
138 1 -6.77405 5.54793 19.9925 0.00286508 0.000363538 -0.000103544 3
151 1 -5.45658 0.569599 19.8626 -0.00249691 0.000711596 -0.00157322 3
152 1 -4.8266 1.81092 19.8472 0.00490983 -0.00298621 -0.00219019 3
153 1 -5.50086 3.072 19.907 0.00518831 0.00327445 -0.00134041 3
154 1 -4.78508 4.28798 19.9146 0.000421838 -0.00111844 -0.00125841 3
155 1 -5.39849 5.57703 19.9668 0.00580636 -0.0050147 -0.000637841 3
166 1 -3.44242 1.80487 19.7839 -0.00110229 -0.00760796 -0.00279353 3
167 1 -3.37357 4.25959 19.8685 -0.00252305 -0.00673327 -0.00176872 3
176 1 -2.7979 0.581786 19.736 0.0121699 -0.00052638 -0.00284634 3
177 1 -2.73108 3.02031 19.7976 0.00760489 -0.00611405 -0.00289012 3
178 1 -2.52018 5.41465 19.8979 0.00632867 -0.00157713 -0.00126079 3
191 1 -1.34048 0.579329 19.7078 0.0148649 0.000866778 -0.00119816 3
192 1 -0.568497 1.77551 19.7291 -0.00129067 -0.00097805 -0.00092362 3
193 1 -1.27176 2.94722 19.7675 0.00314281 -0.00397057 -0.00210983 3
194 1 -0.478731 4.11162 19.8187 -0.00527838 -0.0102629 -0.00231236 3
195 1 -1.0999 5.3589 19.8804 0.0030842 -0.0070489 -0.00165864 3
206 1 0.85422 1.76711 19.7486 0.00802104 -0.00147266 -0.000835159 3
207 1 0.935346 4.19832 19.8376 0.00670115 -0.00858124 -0.00202926 3
216 1 1.58163 0.527224 19.7503 0.0144741 -0.00185827 -0.000325547 3
217 1 1.68082 2.98026 19.8067 0.00987063 0.00157126 -0.00159083 3
218 1 1.6214 5.48361 19.9027 -0.00244934 0.00459057 -0.00125949 3
231 1 3.02121 0.551041 19.7973 0.00723011 0.00276514 -0.00174644 3
232 1 3.78044 1.8007 19.8433 0.00529909 0.00447525 -0.00157323 3
233 1 3.11913 3.09169 19.8532 0.0081993 0.0109892 -0.00123993 3
234 1 3.79541 4.37186 19.9094 0.00208486 0.0079186 -0.00123115 3
235 1 3.02666 5.59304 19.9299 -0.00144129 0.00442705 -0.0012129 3
246 1 5.27323 1.77373 19.8994 -0.00447959 0.00392838 -0.001585 3
247 1 5.23642 4.33769 19.9422 -0.00893099 0.00300426 -0.00119277 3
256 1 6.08465 0.54764 19.9211 -0.00116519 -0.00319211 -0.00145251 3
257 1 5.96572 3.03032 19.938 -0.00183904 0.000549627 -0.00104591 3
258 1 5.92162 5.57313 19.9775 -0.00507286 0.00250328 -0.000688489 3
271 1 7.5566 0.538686 19.9644 0.00641489 0.00473645 -0.000815989 3
273 1 7.41145 2.98282 19.9729 0.00353934 -0.00380324 -0.000724639 3
275 1 7.34675 5.44851 19.9962 0.00241337 -0.00195344 -0.000357512 3
272 1 8.26536 1.79831 19.9814 0.00968659 -0.00169985 -0.000639516 3
274 1 8.15954 4.24334 19.9948 -0.00146007 -0.000943782 -0.000555066 3
286 1 9.70335 1.85168 19.9972 0.00420909 0.00155843 -0.000500039 3
287 1 9.61355 4.26226 20.0042 -0.00278879 0.00032256 -0.000320201 3
296 1 10.5055 0.657503 19.9987 -0.00257737 -0.00347458 -0.000333074 3
297 1 10.4856 3.07884 20.0019 0.00165787 0.00105444 -0.00028032 3
298 1 10.431 5.42899 20.006 -0.00622785 -0.000126013 -3.30652e-05 3
99 1 -10.8332 7.9464 20.0023 0.00653603 0.00414745 6.265e-05 3
116 1 -8.77614 6.81116 20.0131 0.0151366 0.00592189 0.000267259 3
117 1 -9.42535 8.03786 20.0087 0.00192149 -0.00121107 0.00016151 3
118 1 -8.65253 9.21967 20.0057 0.00973695 -0.00625983 0.000127069 3
128 1 -7.35284 6.81173 20.0097 0.0132626 0.00578643 0.000169687 3
129 1 -7.25843 9.20654 20.0068 0.0115727 -0.00730186 0.000142977 3
139 1 -6.60315 7.96826 20.0093 0.00811023 -0.000478891 9.82353e-05 3
156 1 -4.53264 6.7173 19.9772 0.00557649 -0.00460528 -0.000429229 3
157 1 -5.22305 7.96202 20.0023 0.0149192 -0.00430285 -0.00011514 3
158 1 -4.5145 9.19921 20.0034 0.0110561 -0.000378599 -5.41093e-06 3
168 1 -3.10551 6.71217 19.9565 -0.00214904 -0.00544381 -0.000784797 3
169 1 -3.09283 9.21531 19.9991 0.00706264 -0.00181457 -4.60874e-05 3
179 1 -2.42393 7.96339 19.9808 0.00589007 -0.00838801 -0.000616385 3
196 1 -0.452922 6.64469 19.935 -0.00537964 -0.00528112 -0.00115702 3
197 1 -1.01568 7.94786 19.9744 0.00619395 0.00390395 -0.000485159 3
198 1 -0.24338 9.16626 19.9917 0.00529661 0.000327799 -0.000245686 3
208 1 0.957016 6.7181 19.9401 -0.00394454 0.00313097 -0.000907646 3
209 1 1.16563 9.21358 19.9913 -0.00615994 0.00134415 -0.000310999 3
219 1 1.71426 7.94471 19.9735 -0.00621192 0.00551703 -0.000661055 3
236 1 3.75446 6.82178 19.9699 -0.00366068 -0.00143496 -0.000908812 3
237 1 3.09323 8.05068 19.9827 -0.00475035 0.000447816 -0.000601897 3
238 1 3.92965 9.19246 19.9972 -0.00737675 0.000235411 -0.000222191 3
248 1 5.2154 6.83816 19.9876 -0.00503394 0.00314381 -0.000643155 3
249 1 5.34377 9.2466 20.0012 -0.00798257 -0.00185431 -0.000166086 3
259 1 6.06604 8.01622 20.0042 -0.000364986 0.00330965 -0.000199113 3
277 1 7.54332 7.92335 20.0091 -0.00021677 0.00738453 -6.74341e-05 3
276 1 8.20597 6.6146 20.0093 -0.0062758 0.00476973 -9.22593e-05 3
278 1 8.34904 9.12946 20.0062 0.0033004 0.00392957 3.74559e-05 3
288 1 9.65963 6.64245 20.009 -0.00288013 0.00581401 2.41228e-05 3
289 1 9.77305 9.11784 20.0044 0.00182266 -0.00209318 8.8323e-05 3
299 1 10.4482 7.85181 20.0053 0.00577501 0.00277519 5.81784e-05 3
