ITEM: TIMESTEP
5500
ITEM: NUMBER OF ATOMS
60
ITEM: BOX BOUNDS pp pp pp
-1.4715758017245314e+01 1.5057610017245315e+01
-1.2710055654020760e+01 1.2664508654020761e+01
-5.0001035148846022e+01 1.0000103514884636e+02
ITEM: ATOMS id type x y z vx vy vz c_coord
8 1 -0.686166 -1.31102 13.4422 -0.000147739 0.000854955 0.490364 3
20 1 -3.20059 -1.83497 15.8395 0.000842446 -0.00128687 0.498373 3
27 1 -1.4368 -0.0626319 13.3404 0.00346642 -0.00158063 0.492435 3
28 1 -1.51149 -2.24588 14.1001 0.00343152 -0.00535274 0.499445 3
36 1 -1.22585 -3.34736 16.2287 0.0022561 -0.00194763 0.501231 3
42 1 -2.68651 -0.242752 14.0116 -0.00072322 -0.00357912 0.499577 3
44 1 -2.72706 -1.59998 14.5298 0.00271275 0.00450984 0.49851 3
52 1 -0.730864 -3.17091 14.8976 -0.00671393 0.0019357 0.500636 3
7 1 0.713921 -1.28206 13.4475 0.00224162 0.00226962 0.492 3
16 1 3.19855 -1.83538 15.8505 -0.00322882 0.00315384 0.504615 3
25 1 1.44369 -0.0988968 13.3372 -0.00256874 -0.00102585 0.493348 3
26 1 1.48532 -2.23186 14.1179 -5.16754e-05 0.00149536 0.49682 3
35 1 1.23044 -3.34132 16.2366 1.59587e-05 -0.0028762 0.504431 3
38 1 2.69448 -0.251841 14.008 -0.000735951 -0.00183559 0.501839 3
40 1 2.71347 -1.59801 14.536 -0.00654948 0.00033332 0.501039 3
50 1 0.726893 -3.15408 14.9162 0.00604521 -5.02547e-06 0.495937 3
3 1 -3.61242 0.674121 16.069 -0.00107358 -0.00190947 0.500067 3
9 1 0.00122086 3.37824 15.7066 -0.00266292 0.00859084 0.498176 3
10 1 -0.00757275 2.90769 14.4036 0.00144912 0.0035946 0.499507 3
18 1 -3.16125 0.896872 14.7318 -0.000472607 -0.000293214 0.499161 3
32 1 -1.18043 2.24613 13.9062 0.0015198 -0.000271552 0.498514 3
51 1 -0.707477 1.11893 13.244 0.000237332 -0.000775277 0.494777 3
54 1 -2.38602 2.66057 16.0376 0.00163702 0.00243775 0.503959 3
56 1 -2.40593 2.1338 14.6807 0.0041632 0.00093976 0.503457 3
30 1 -1.16656 3.29379 16.4834 -0.00456332 0.0012298 0.498113 3
1 1 3.61237 0.673959 16.0515 0.00355026 -0.00586849 0.501373 3
14 1 3.16344 0.905571 14.7242 -0.0041364 -0.00287796 0.496035 3
31 1 1.20344 2.26695 13.9128 -0.00154518 0.000314258 0.498264 3
49 1 0.701046 1.10027 13.2225 0.00072868 -0.00435042 0.497011 3
53 1 2.40404 2.66131 16.0091 -0.00310196 0.00191424 0.499472 3
55 1 2.42617 2.1247 14.6893 -0.00447426 0.000904814 0.502974 3
29 1 1.17961 3.29705 16.4592 0.00692042 0.00128225 0.497111 3
4 1 -3.61808 -0.68715 16.5966 -0.00191887 0.00678246 0.501589 3
12 1 -0.00958819 -3.38687 16.9909 -0.000661541 -0.00361615 0.500979 3
60 1 -2.45182 -2.71778 16.6705 0.00967213 0.00242988 0.498012 3
11 1 -0.0193069 -2.75687 18.19 0.00184992 -0.000463903 0.500989 3
19 1 -3.17468 -0.879266 17.9399 0.00193642 -0.0049718 0.501862 3
58 1 -2.43082 -2.11322 17.9772 0.00435306 0.00420645 0.497826 3
34 1 -1.18452 -2.1623 18.6804 0.00233821 -0.00290469 0.487326 5
48 1 -0.732638 -1.07934 19.4435 -0.0187297 -0.00093171 0.47503 7
2 1 3.62119 -0.678959 16.5853 -0.00348128 -0.00174522 0.501171 3
59 1 2.44159 -2.71094 16.6635 -0.00427207 0.0102274 0.499596 3
15 1 3.1805 -0.878295 17.9369 -0.00261136 -0.00205912 0.499599 3
57 1 2.43206 -2.11852 17.9508 -0.00353569 0.00447971 0.496199 3
33 1 1.20245 -2.1687 18.6611 -0.00294958 -0.00757651 0.485802 5
46 1 0.739231 -1.06467 19.4395 0.0126542 0.000647692 0.470584 6
17 1 -3.16267 1.77441 16.8478 -0.00165067 -0.00166989 0.498416 3
41 1 -2.7344 1.58797 18.1949 0.0044396 -0.000308235 0.496033 3
47 1 -0.74307 3.13771 17.8217 -0.00142453 -0.00396698 0.495364 3
6 1 -0.718405 1.27792 19.2303 -0.0660718 -0.0286785 0.480528 6
23 1 -1.51283 2.24499 18.5883 0.00216341 0.000918275 0.488703 5
24 1 -1.49803 0.0922657 19.3776 0.0097814 0.00641104 0.472444 6
43 1 -2.73724 0.228536 18.6998 0.00763103 0.00404411 0.485529 5
13 1 3.17578 1.78535 16.8306 -0.00105815 0.000342544 0.502667 3
37 1 2.72676 1.59244 18.1715 -0.00476491 -0.00458856 0.498968 3
45 1 0.710925 3.14479 17.8191 0.00117875 -0.00054819 0.497417 3
5 1 0.723907 1.25214 19.2288 0.00647999 -0.00136542 0.487058 6
21 1 1.48985 2.19981 18.5644 -0.000300006 0.00242914 0.49071 5
22 1 1.47657 0.128008 19.3908 -0.0236805 0.00205537 0.467166 6
39 1 2.72414 0.252818 18.716 0.000534848 0.0029763 0.477524 6
