ITEM: TIMESTEP
22100
ITEM: NUMBER OF ATOMS
60
ITEM: BOX BOUNDS pp pp pp
-1.4715758017245314e+01 1.5057610017245315e+01
-1.2710055654020760e+01 1.2664508654020761e+01
-5.0001035148846022e+01 1.0000103514884636e+02
ITEM: ATOMS id type x y z vx vy vz c_coord
8 1 -1.17907 -3.74028 28.545 0.00906876 -0.0854933 0.437767 1
27 1 -2.94447 -0.416412 28.8032 -0.071028 -0.0280229 0.442845 1
28 1 -1.99653 -2.42692 29.9827 -0.035427 -0.0185377 0.473368 2
44 1 -2.55154 -1.05159 30.6047 0.00901247 0.00462544 0.456449 2
52 1 -1.17997 -3.24391 30.8865 -0.0055572 -0.0122961 0.432304 2
20 1 -2.88726 -1.14994 31.99 -0.0274593 0.0342895 0.470386 3
36 1 -1.17752 -3.40502 32.3524 0.003154 0.0124242 0.504797 3
60 1 -1.794 -2.02892 32.7189 0.0479548 -0.0204693 0.542924 3
4 1 -3.78321 -0.421166 32.8785 0.0441439 -0.02604 0.467043 3
7 1 0.256683 -3.23949 28.6345 -0.0386365 -0.119686 0.442589 1
38 1 2.86112 -0.0411101 29.6707 -0.012901 0.0500816 0.458076 2
26 1 1.70858 -2.50655 30.1715 -0.00133491 -0.0102472 0.479267 2
40 1 3.0066 -1.857 30.148 0.00927249 0.00686922 0.445809 2
50 1 0.468679 -2.05803 31.5325 0.00871844 0.0169597 0.496006 1
16 1 2.98088 -1.60284 31.8062 0.00868182 0.0161592 0.46464 3
35 1 1.26992 -2.52379 31.4527 -0.0527439 0.0371269 0.445332 3
2 1 2.55124 -0.684923 32.5846 -0.00103012 0.034482 0.494744 4
59 1 2.11348 -2.01126 32.5574 0.00535551 -0.0207404 0.480201 4
12 1 0.212508 -3.49366 33.2289 -0.0180011 -0.0519269 0.532432 2
57 1 1.53032 -1.79798 34.0308 0.0328766 -0.00938703 0.486471 3
15 1 2.27318 -0.575372 33.993 -0.0299091 0.0223162 0.489386 3
51 1 -0.326416 1.70523 28.9387 0.0342286 0.0221737 0.446882 3
42 1 -4.25823 0.200764 29.5124 -0.0822699 0.0300961 0.468355 2
32 1 -1.48531 2.28312 29.5124 -0.015905 -0.0232355 0.458759 3
10 1 -0.122686 2.33239 30.5815 -0.00850407 -0.0231273 0.465856 3
18 1 -3.60135 0.735694 30.7636 -0.0738391 0.00500931 0.451769 3
56 1 -2.52985 1.60114 30.478 -0.0120105 0.00765807 0.486856 3
9 1 -0.195952 3.61757 31.7507 -0.0205956 0.0278612 0.497739 3
54 1 -1.77477 1.55833 31.7268 0.0815543 -0.042268 0.495333 2
3 1 -3.473 0.841478 32.4515 -0.0167622 -0.02143 0.494791 3
30 1 -1.26085 3.26399 32.5221 -0.0143674 0.0116768 0.506101 1
17 1 -2.4719 1.20565 33.0138 -0.0170661 0.00792299 0.503694 3
45 1 0.04797 4.39379 33.7646 -0.0401493 0.0310509 0.498931 1
25 1 2.37404 0.966723 28.7269 0.0260218 0.0435254 0.444893 2
49 1 1.08548 1.62968 28.6158 0.0136294 0.017031 0.46125 2
31 1 1.5184 2.76278 29.9571 0.0477459 0.0117282 0.465601 1
55 1 1.87756 2.05067 31.2169 -0.0307136 0.0106806 0.443928 3
14 1 2.68947 1.00175 30.9518 -0.00441616 0.00121426 0.459166 3
1 1 3.18826 0.598874 32.078 -0.0284284 -0.00554126 0.504697 3
53 1 2.32866 2.83506 32.5048 -0.00228511 -0.00274519 0.541257 3
29 1 1.27535 3.93598 32.2237 0.0241815 0.00246628 0.495142 2
13 1 3.43979 1.79699 32.9933 0.0222354 0.031564 0.483578 3
58 1 -2.19205 -2.10516 34.1356 -0.00028591 -0.0193069 0.496792 3
19 1 -3.17509 -1.17831 34.2346 -0.00450142 0.0181907 0.53291 3
34 1 -1.0786 -2.9899 34.9787 -0.031224 0.00728797 0.478403 3
48 1 -0.819451 -1.85288 35.8551 0.00476399 -0.00184295 0.506769 2
24 1 -1.63039 -1.0882 35.9618 -0.00929423 -0.0276494 0.51209 2
43 1 -2.67462 -0.12194 35.2502 0.0143169 -0.0066263 0.499109 3
11 1 0.2867 -3.42967 34.6842 0.00728661 0.0121293 0.471717 3
33 1 0.97906 -2.1379 35.1877 -0.0360018 0.0157916 0.492225 3
46 1 1.0887 -1.16673 35.8977 0.00158429 0.0368728 0.476129 2
47 1 -1.22154 3.59684 34.3346 0.0142598 0.0185749 0.506753 3
41 1 -2.67791 1.10535 34.4693 0.0118425 -0.0130271 0.489363 3
23 1 -2.13167 2.36017 34.6866 -0.0374278 -0.0436769 0.480216 2
6 1 -0.303283 2.33238 35.723 0.0165034 0.0283051 0.500399 2
21 1 -0.0230172 3.28802 35.397 0.00844394 0.0624024 0.510528 2
5 1 0.103296 1.35769 35.3209 -0.0245595 -0.0327865 0.496434 2
37 1 3.90002 1.07464 34.2663 0.01071 -0.0354923 0.516984 2
39 1 2.61386 0.803399 35.0716 0.00565669 0.0171152 0.500795 3
22 1 1.11012 0.165091 35.5377 -0.0266596 0.0142849 0.519563 3
