ITEM: TIMESTEP
8600
ITEM: NUMBER OF ATOMS
60
ITEM: BOX BOUNDS pp pp pp
-1.4715758017245314e+01 1.5057610017245315e+01
-1.2710055654020760e+01 1.2664508654020761e+01
-5.0001035148846022e+01 1.0000103514884636e+02
ITEM: ATOMS id type x y z vx vy vz c_coord
8 1 -0.703417 -1.28829 16.4717 -0.00343564 0.00267042 0.488142 3
27 1 -1.41852 -0.10051 16.3928 0.000403338 -0.00743078 0.492677 3
7 1 0.723143 -1.27899 16.486 -0.000486392 -0.00150396 0.488406 3
25 1 1.43086 -0.101469 16.3886 0.000391288 -3.87114e-05 0.491894 3
51 1 -0.704691 1.1124 16.3025 0.000782047 -0.0016443 0.492541 3
49 1 0.719619 1.09652 16.3114 0.00320664 0.00237641 0.498598 3
28 1 -1.4867 -2.27614 17.1953 0.00447349 -0.0019632 0.497507 3
42 1 -2.67891 -0.255066 17.1008 0.00409855 0.00253646 0.495859 3
44 1 -2.70288 -1.57834 17.6168 0.00574975 0.000544248 0.497584 3
52 1 -0.738093 -3.16083 18.0073 0.00920534 0.000580892 0.503538 3
20 1 -3.192 -1.82311 18.9282 0.00366975 -0.000768402 0.482579 5
36 1 -1.2122 -3.35324 19.3024 0.00291055 -0.00451351 0.478563 6
4 1 -3.62448 -0.6342 19.6124 -0.0113737 0.0185668 0.445962 7
12 1 0.015562 -3.39418 19.983 0.047506 0.0334894 0.454105 6
60 1 -2.39015 -2.71359 19.6759 0.00938371 -0.00483259 0.457427 6
11 1 0.0804922 -2.82097 21.1853 0.0328617 -0.022517 0.479471 5
19 1 -3.18187 -0.981502 20.9101 0.000166022 -0.0421836 0.483507 5
58 1 -2.38045 -2.05137 20.9693 0.0309515 0.0230137 0.484001 5
34 1 -0.979036 -2.39593 21.5684 0.0391104 -0.0469725 0.483133 4
48 1 -0.940665 -1.19091 22.4411 -0.0144519 -0.0310449 0.495013 3
26 1 1.47305 -2.23694 17.2001 -0.00420199 -0.00275142 0.497148 3
38 1 2.68097 -0.252001 17.1043 -0.00543897 -0.000798214 0.496186 3
40 1 2.68072 -1.60191 17.6415 -0.00457742 0.000793509 0.498946 3
50 1 0.734975 -3.15324 17.9966 -0.00730037 8.94437e-05 0.497673 3
16 1 3.17209 -1.81352 18.9649 -0.00764657 0.000640068 0.486246 5
35 1 1.22702 -3.34952 19.3151 0.00145686 -0.00602662 0.473445 6
2 1 3.60063 -0.674886 19.6205 -0.0551523 0.00401528 0.44607 7
59 1 2.37623 -2.64227 19.709 -0.0303668 0.0247651 0.462056 8
15 1 3.15887 -0.960586 20.8885 -0.00386793 -0.0348716 0.474595 5
57 1 2.17602 -1.95776 20.8574 -0.0830574 0.0441734 0.452863 5
33 1 1.2495 -2.40742 21.5915 0.0147427 -0.0425672 0.494407 4
46 1 0.833438 -1.1249 22.4296 -0.00310223 -0.026363 0.495767 3
10 1 0.011889 2.92207 17.4837 0.00249301 0.00387549 0.496155 3
32 1 -1.18409 2.25325 17.0113 -0.00308114 0.000861112 0.501625 3
18 1 -3.15757 0.903077 17.8365 0.00273896 0.0018045 0.502476 3
56 1 -2.37611 2.13621 17.822 0.00442702 -0.001174 0.508981 3
3 1 -3.6143 0.642385 19.1546 -0.00113287 0.00105379 0.478558 6
9 1 -0.0172273 3.42932 18.7923 -0.00456582 -0.00202654 0.487069 6
54 1 -2.37374 2.65927 19.1108 -0.0029572 -0.00344322 0.475039 6
30 1 -1.20291 3.29326 19.5011 0.00196595 0.00325781 0.445553 7
17 1 -3.12909 1.74642 19.8251 0.0702617 -0.0192751 0.432403 7
41 1 -2.71383 1.46436 21.1178 -0.00379807 -0.0409749 0.463839 5
47 1 -0.706656 3.16264 20.7447 0.0115978 0.00817182 0.465095 6
6 1 -1.07751 1.14286 22.2324 -0.0272502 0.016744 0.492433 2
23 1 -1.51002 2.58212 21.4925 -0.000571574 0.0690487 0.491544 5
24 1 -1.41989 0.042193 22.3802 -0.00537749 -0.035027 0.503803 3
43 1 -2.7635 0.216524 21.6296 -0.0102248 -0.00687163 0.489823 4
31 1 1.18663 2.25346 17.0044 -0.0012812 -0.0051295 0.497778 3
14 1 3.14594 0.886352 17.816 -0.00215689 -0.00156004 0.502564 3
55 1 2.38002 2.13218 17.7923 -0.00863803 0.000367456 0.498918 3
1 1 3.62789 0.624878 19.1307 0.000713476 -0.0131325 0.472968 6
53 1 2.3824 2.66983 19.0866 -0.00353543 6.93854e-05 0.483639 5
29 1 1.22272 3.30282 19.4871 0.00396138 0.00786804 0.459359 6
13 1 3.16727 1.78456 19.8353 -0.00428334 0.00650607 0.454796 6
37 1 2.85455 1.68163 21.1082 0.0780148 0.00832811 0.476085 4
45 1 0.662725 3.18685 20.7652 -0.0200096 0.0173563 0.469174 6
5 1 0.855723 1.18808 22.226 0.0114528 0.00649667 0.488118 2
21 1 1.18345 2.51667 21.3999 -0.0827641 0.0757705 0.455507 4
22 1 1.24957 0.0866624 22.3377 -0.0305703 -0.0102958 0.491279 3
39 1 2.70097 0.284847 21.6135 -0.0102909 0.00676886 0.476196 4
