ITEM: TIMESTEP
26700
ITEM: NUMBER OF ATOMS
60
ITEM: BOX BOUNDS pp pp pp
-1.4715758017245314e+01 1.5057610017245315e+01
-1.2710055654020760e+01 1.2664508654020761e+01
-5.0001035148846022e+01 1.0000103514884636e+02
ITEM: ATOMS id type x y z vx vy vz c_coord
8 1 -1.27402 -4.54026 32.5728 -0.0520915 -0.0973151 0.433485 1
27 1 -3.74147 -0.602786 33.0965 -0.0944429 -0.0130678 0.490663 1
28 1 -2.28174 -2.60093 34.3797 -0.0282589 -0.0134461 0.482582 2
7 1 0.0798448 -4.30601 32.7256 0.0228062 -0.105977 0.447978 1
26 1 1.76629 -2.46465 34.6407 0.000471446 0.0211438 0.501049 2
40 1 2.9525 -1.81637 34.3955 -0.0140843 0.003491 0.475698 2
51 1 -0.0899978 1.92831 33.1666 0.0114534 0.0212627 0.471082 3
42 1 -4.80417 0.404183 33.8437 -0.0379038 0.0152607 0.478014 2
32 1 -1.52595 1.98121 33.9424 -0.0128981 -0.0373852 0.498739 3
38 1 2.80178 0.316141 33.9272 -0.00990874 0.0563303 0.45166 2
25 1 2.55978 1.37291 32.7203 0.012317 0.0292947 0.445514 2
49 1 1.24619 1.94433 32.9429 0.0439755 0.0429705 0.475594 3
31 1 1.85977 2.82642 34.1238 0.032628 0.00398208 0.443543 2
44 1 -2.49761 -1.08167 34.7023 -0.00538911 -0.00976509 0.44418 2
52 1 -1.2366 -3.36322 35.0718 -0.00264363 -0.0135132 0.48676 1
20 1 -2.802 -1.34789 36.2182 0.027957 -0.0408222 0.445437 2
36 1 -0.958655 -3.20249 36.8486 0.0600375 0.00459991 0.462197 2
60 1 -1.57797 -2.21761 37.5225 0.00295558 -0.00477989 0.482766 2
4 1 -3.50297 -0.787908 37.4568 0.0265545 -0.0198017 0.517601 3
12 1 -0.118633 -4.0196 37.8414 -0.0511696 -0.043399 0.484221 2
58 1 -2.2412 -2.29061 38.6831 -0.0376264 0.000576634 0.503659 3
19 1 -3.24575 -0.950392 38.8684 -0.0193434 0.00682953 0.454183 3
34 1 -1.28428 -2.92176 39.481 0.00929619 -0.0096295 0.528405 3
48 1 -0.660421 -2.09295 40.5491 0.00764815 -0.015875 0.518017 3
24 1 -1.87105 -1.01585 40.7103 0.000709706 -0.00325824 0.526441 2
43 1 -2.59629 -0.318474 39.9207 -0.00175155 0.00274438 0.514756 2
50 1 0.292695 -1.85716 35.9293 -0.0348265 0.0215131 0.466388 1
16 1 3.15036 -1.45709 35.9398 0.00962573 0.00794816 0.453679 3
35 1 0.928253 -2.29966 35.5871 -0.0117315 0.00885357 0.4543 2
2 1 2.59567 -0.277091 37.1557 0.0114735 0.0525452 0.498459 3
59 1 2.17448 -2.34142 37.0352 0.00470711 -0.0407466 0.474436 2
57 1 1.89612 -1.76184 38.4806 0.0361514 0.012592 0.486276 3
15 1 2.05684 -0.377515 38.4962 -0.0150225 0.0194944 0.482282 3
11 1 0.256152 -3.28181 39.1688 -0.0121276 0.00597998 0.476535 3
33 1 0.695215 -2.03524 39.7164 -0.026066 0.0113879 0.49274 4
46 1 1.05446 -0.889756 40.2688 -0.0141948 0.0163403 0.465685 2
10 1 -0.400621 2.24584 34.6916 -0.0358073 -0.0036176 0.434745 2
18 1 -4.19722 0.888259 35.1109 -0.0445675 0.0264642 0.490197 1
56 1 -2.47959 1.67927 34.9939 0.0196091 0.000121098 0.49821 1
9 1 -0.213417 3.73675 36.2971 -0.0143992 -0.00322262 0.513622 2
54 1 -1.27851 1.18751 36.3956 0.0255837 -0.0321299 0.501601 1
3 1 -3.61385 0.841416 36.8716 0.0146518 -0.00512115 0.470281 2
30 1 -1.3904 3.34505 37.1667 0.0138318 0.0139846 0.484447 2
17 1 -2.66535 1.28354 37.2137 -0.0498213 -0.00299564 0.437196 3
45 1 -0.316116 4.61237 38.5103 -0.0264337 0.028819 0.537361 2
47 1 -1.15031 3.74612 38.9038 -0.00873035 0.00721868 0.486536 3
41 1 -2.51203 1.12829 38.7778 0.01962 0.0101796 0.4597 2
23 1 -2.31274 2.2743 39.3966 -0.0137441 0.000539594 0.519323 1
6 1 -0.0767589 2.3938 40.3827 0.0328008 0.0126392 0.50338 2
21 1 -0.0278025 4.03852 39.894 -0.00874516 0.0758907 0.473604 3
5 1 -0.0687717 1.01646 40.0158 -0.0444843 -0.013269 0.514513 2
55 1 1.72781 2.25169 35.4417 -0.00575956 0.0274034 0.470602 2
14 1 2.67542 0.971021 35.1645 0.000719191 -0.00879716 0.475726 3
1 1 3.00329 0.643099 36.7879 -0.016548 0.0250244 0.495328 3
53 1 2.18282 2.79587 37.3432 -0.0211016 -0.00599958 0.511232 2
29 1 1.42321 3.87012 36.8145 0.0142956 -0.024122 0.499823 2
13 1 3.5922 1.94812 37.5286 -0.000654861 0.00155801 0.499088 2
37 1 3.88414 0.866029 38.9464 0.00223147 -0.00684605 0.492801 1
39 1 2.62676 0.823306 39.59 -0.011802 -0.00749395 0.492995 2
22 1 0.916242 0.45649 40.3231 0.0118804 0.0137573 0.527256 2
