ITEM: TIMESTEP
11500
ITEM: NUMBER OF ATOMS
60
ITEM: BOX BOUNDS pp pp pp
-1.4715758017245314e+01 1.5057610017245315e+01
-1.2710055654020760e+01 1.2664508654020761e+01
-5.0001035148846022e+01 1.0000103514884636e+02
ITEM: ATOMS id type x y z vx vy vz c_coord
8 1 -0.703946 -1.32496 19.2846 0.0105913 -0.0500029 0.460095 6
27 1 -1.44749 -0.120931 19.2229 -0.0141941 0.00097257 0.47788 5
28 1 -1.46733 -2.2656 20.0573 0.00555499 -0.000420972 0.483583 5
42 1 -2.71441 -0.24449 19.9102 -0.0357666 0.0007283 0.455204 6
44 1 -2.61802 -1.61103 20.4139 0.0283767 -0.00725008 0.465155 6
52 1 -0.656541 -3.11347 20.8285 -0.00921966 0.0206378 0.476368 4
20 1 -3.2192 -1.40903 21.56 -0.00925163 0.0793981 0.464877 5
36 1 -1.19215 -3.37179 22.0651 0.0140597 -0.00760149 0.490522 3
4 1 -3.71588 -0.455207 22.3044 -0.0154237 0.0307862 0.498344 3
60 1 -2.30895 -2.701 22.3724 0.017073 0.0190274 0.481123 3
7 1 0.688994 -1.30682 19.2737 -0.0116136 -0.0164168 0.459637 6
25 1 1.45853 -0.0965581 19.2191 0.0111282 0.000848092 0.478501 5
26 1 1.44447 -2.27169 20.064 -0.00474795 -0.00624973 0.480872 5
38 1 2.65859 -0.260167 19.9611 0.0150083 -0.0056933 0.473083 5
40 1 2.64625 -1.58732 20.481 -0.0211615 0.00682288 0.478541 5
50 1 0.437616 -2.88286 20.6851 -0.0818883 0.0728394 0.443152 6
16 1 3.41051 -1.75423 21.6737 0.0596166 0.00751636 0.472165 4
35 1 1.21565 -3.37199 22.0025 0.0163653 -0.0100046 0.462627 3
2 1 3.12563 -0.680307 22.2616 -0.0808054 0.00526692 0.477277 3
59 1 2.21398 -2.3638 22.4244 -0.0282137 0.0444484 0.47106 3
51 1 -0.692774 1.10143 19.1435 0.00395616 0.00730519 0.478005 6
10 1 0.0292619 2.87995 20.2968 0.00168261 -0.0469098 0.46867 6
32 1 -1.18579 2.26282 19.879 0.00410893 0.00605824 0.480454 5
18 1 -3.11769 0.874789 20.6484 -0.0038382 -0.00935292 0.470359 5
56 1 -2.37368 1.99122 20.6111 -0.0108547 -0.0792223 0.464089 6
3 1 -3.65327 0.65367 21.897 -0.00969856 0.000702194 0.479726 4
9 1 -0.0971745 3.43086 21.494 -0.0151009 -0.00819023 0.47307 3
54 1 -2.45414 2.63778 21.82 -0.00803913 -0.0033449 0.480986 3
30 1 -1.0643 3.26001 22.1553 0.0216539 -0.011464 0.476387 3
17 1 -2.72096 1.51118 22.4573 0.0709669 -0.0414101 0.477363 3
49 1 0.717776 1.10621 19.1758 -0.00496363 0.014205 0.475284 5
31 1 1.16529 2.2376 19.856 -0.0121913 0.00263892 0.482429 5
14 1 3.05412 0.872059 20.6566 -0.0394302 -0.0147026 0.480534 4
55 1 2.24792 2.09799 20.5765 -0.0528629 -0.0079534 0.463562 6
1 1 3.70848 0.463695 21.8006 0.0176946 -0.0347674 0.473083 4
53 1 2.40338 2.7687 21.8133 0.00892855 0.0280042 0.47547 4
29 1 1.15325 3.43885 22.1947 -0.0211632 0.0354263 0.486478 3
19 1 -3.20221 -1.10108 23.8052 -0.0101629 -0.000599518 0.493839 3
58 1 -2.1298 -1.9928 23.8263 0.0447315 -0.0122395 0.477095 3
34 1 -0.894441 -2.53917 24.4674 -0.00639961 -0.0140541 0.506269 3
48 1 -0.790752 -1.48581 25.3114 0.0558978 -0.0524543 0.506158 3
24 1 -1.53135 -0.160234 25.3047 -0.0289165 -0.0243397 0.50002 3
12 1 0.306686 -3.21847 22.7104 0.0241175 0.0293157 0.49726 3
11 1 0.279892 -2.98106 24.0229 0.0315258 -0.0393335 0.481301 3
15 1 3.10637 -1.03787 23.7507 -0.0229573 0.0114648 0.496527 3
57 1 1.73518 -1.68428 23.5204 -0.0562399 0.0510669 0.459714 3
33 1 1.2947 -2.52944 24.6165 0.0041285 -0.00482586 0.538495 3
46 1 0.66911 -1.42168 25.2673 -0.0417669 -0.0615513 0.490842 3
41 1 -2.67581 1.37451 23.8644 0.014174 0.00820326 0.476394 3
47 1 -0.668321 3.27988 23.4797 -0.0296692 0.035252 0.460899 4
23 1 -1.62254 2.64112 24.4762 -0.0384306 -0.0375158 0.527993 3
6 1 -1.10035 1.47781 25.0633 0.0100364 0.0747778 0.489703 2
43 1 -2.85782 0.0811855 24.5096 -0.0180706 -0.0377884 0.500855 3
13 1 3.07059 1.84821 22.5406 -0.0208305 0.00406013 0.475343 3
37 1 3.28537 1.64876 24.0019 0.0753212 -0.00600148 0.508808 2
45 1 0.509755 3.36671 23.5559 0.00808823 0.0413393 0.476754 3
21 1 0.739652 2.78331 24.23 -0.0636247 0.0280316 0.51088 3
5 1 0.821521 1.38708 24.9838 -0.0166443 0.0460697 0.469303 2
22 1 1.16503 -0.0037022 25.19 0.000199226 -0.0163551 0.489491 3
39 1 2.65049 0.31865 24.4027 -0.00824117 -0.0147679 0.479772 3
