ITEM: TIMESTEP
18100
ITEM: NUMBER OF ATOMS
60
ITEM: BOX BOUNDS pp pp pp
-1.4715758017245314e+01 1.5057610017245315e+01
-1.2710055654020760e+01 1.2664508654020761e+01
-5.0001035148846022e+01 1.0000103514884636e+02
ITEM: ATOMS id type x y z vx vy vz c_coord
8 1 -0.935182 -2.86332 25.1209 -0.0498081 -0.125907 0.422692 2
27 1 -2.44133 -0.206163 25.3796 -0.0850914 -0.00781738 0.460212 1
28 1 -1.70984 -2.25748 26.2378 -0.0407552 -0.00912116 0.456066 3
42 1 -3.55217 -0.0253272 25.7544 -0.0744277 0.00722971 0.449662 2
44 1 -2.52302 -1.3012 26.8142 -0.0220182 0.064041 0.481299 2
52 1 -1.16445 -3.14034 27.2164 -0.00442413 -0.0260603 0.494524 2
20 1 -2.82795 -1.25331 28.0566 0.0394809 -0.0344813 0.51402 3
7 1 0.304997 -2.38914 25.1346 0.00293918 -0.0991965 0.432577 2
26 1 1.59045 -2.4491 26.3851 0.0227557 -0.0102909 0.475892 4
38 1 2.90305 -0.377299 26.0591 0.0145873 0.0207557 0.452099 3
40 1 2.89427 -1.73771 26.6233 0.0263132 -0.0378129 0.440794 3
50 1 0.498757 -2.28059 27.4178 0.00409327 0.0297983 0.534134 2
16 1 3.29855 -1.63494 27.9564 -0.0572669 0.0102 0.496767 3
35 1 1.33881 -2.85804 27.8154 -0.00593009 0.0502712 0.447274 4
51 1 -0.458106 1.51029 25.3327 -0.00263615 0.032476 0.463127 3
10 1 -0.105066 2.52289 26.7043 0.000177397 -0.0171616 0.494445 4
32 1 -1.35064 2.40647 26.0001 -0.0115023 -0.0129954 0.433058 3
18 1 -3.23904 0.640354 27.0441 -0.0130302 -0.0133513 0.452959 3
56 1 -2.32034 1.65363 26.521 -0.0129811 0.00145382 0.487394 3
9 1 -0.000297624 3.41801 27.633 -0.0115382 0.0118562 0.496962 3
54 1 -2.22355 2.06281 27.954 0.0295456 -0.0871777 0.455342 3
25 1 2.10849 0.570809 25.1935 0.0401039 0.0605584 0.428061 2
49 1 1.00042 1.54707 25.081 0.000480899 0.0113302 0.419195 3
31 1 1.08684 2.54789 26.1515 0.038731 0.0468194 0.482988 3
55 1 2.03256 2.09146 27.4436 0.0125288 -0.00828777 0.536945 3
14 1 2.71254 0.920273 27.1174 -0.0050357 0.022038 0.497357 3
36 1 -1.09118 -3.35927 28.5381 -0.0178254 -0.00891485 0.453359 3
60 1 -2.11353 -2.10797 28.6675 0.0161015 0.046823 0.463901 3
4 1 -3.93046 -0.423007 29.1648 -0.013768 0.00887605 0.485549 3
58 1 -2.04454 -2.13148 29.9703 -0.0272473 0.0139898 0.519898 3
19 1 -3.25146 -1.10386 30.1218 0.0133288 -0.00936388 0.500368 3
34 1 -1.00758 -2.973 31.056 0.0227621 -0.0202672 0.500597 3
48 1 -0.584304 -1.89443 31.8924 -0.0432458 -0.0166331 0.48523 3
24 1 -1.74977 -0.57318 31.8887 0.0042785 -0.057321 0.50549 2
43 1 -2.79022 -0.17636 31.2293 0.018354 -0.00223496 0.504778 3
2 1 2.61491 -0.727381 28.6527 -0.0140517 -0.0208893 0.490917 4
59 1 2.04146 -2.04606 28.7403 0.0129315 0.0289307 0.485323 4
12 1 0.176522 -3.18953 29.117 0.0172215 -0.0209168 0.48607 3
57 1 1.39139 -1.62374 30.0452 0.00123338 -0.0297453 0.508896 3
11 1 0.282843 -3.42157 30.7227 -0.0208106 -0.0130177 0.524285 3
15 1 2.53847 -0.732334 30.1236 -0.0407765 0.00824014 0.469079 3
33 1 1.28789 -2.29592 31.3 -0.0270104 0.0243148 0.480938 3
46 1 0.862392 -1.46302 32.0107 0.0524216 0.0428955 0.496092 3
3 1 -3.55999 0.937056 28.4161 0.030803 0.0147643 0.523938 3
30 1 -1.31227 3.11358 28.5601 0.00128991 0.0112006 0.485784 3
17 1 -2.28263 1.15473 29.0379 -0.0176477 0.00853031 0.476221 3
47 1 -1.24233 3.54598 30.1813 -0.0226333 -0.00715719 0.543724 4
41 1 -2.67882 1.28658 30.5224 -0.0190257 -0.0412458 0.504739 3
23 1 -1.95666 2.54792 30.8705 0.0289046 0.0293913 0.4715 3
6 1 -0.520795 2.06226 31.7785 0.0315557 0.0512074 0.506362 3
21 1 0.0508937 2.98677 31.2623 -0.0569888 0.0155415 0.522393 3
1 1 3.47975 0.574284 28.201 -0.0383939 0.0234216 0.48402 3
53 1 2.31777 2.84492 28.1767 0.00176549 -0.0183932 0.521917 3
29 1 1.17972 3.8441 28.4315 0.0156754 0.0243285 0.449853 3
13 1 3.24033 1.58101 29.0643 0.0173869 0.00642155 0.485537 3
45 1 0.39678 4.13371 29.8048 -0.0482743 0.0434742 0.500062 2
37 1 3.79852 1.35117 30.279 0.0110414 -0.0288056 0.465527 2
39 1 2.51555 0.504851 31.0165 0.00629713 0.0537522 0.517641 3
22 1 1.33286 0.0851122 31.4668 -0.0140586 0.000666195 0.49246 3
5 1 0.372899 1.41359 31.3537 -0.0249543 -0.0146256 0.486549 3
