ITEM: TIMESTEP
13300
ITEM: NUMBER OF ATOMS
60
ITEM: BOX BOUNDS pp pp pp
-1.4715758017245314e+01 1.5057610017245315e+01
-1.2710055654020760e+01 1.2664508654020761e+01
-5.0001035148846022e+01 1.0000103514884636e+02
ITEM: ATOMS id type x y z vx vy vz c_coord
8 1 -0.679831 -1.61989 20.8909 -0.0190078 -0.0955454 0.444854 7
27 1 -1.56292 -0.149721 20.8875 -0.0532216 -0.0229458 0.458144 7
28 1 -1.45552 -2.25884 21.7962 -0.00362046 0.00226157 0.480679 4
42 1 -2.92305 -0.169463 21.5241 -0.0846238 0.0389926 0.446254 4
44 1 -2.49809 -1.64503 22.1235 0.0387068 -0.00863677 0.481747 4
7 1 0.607214 -1.43636 20.8854 -0.05391 -0.0803924 0.441389 7
25 1 1.57154 -0.0216301 20.8948 0.0671817 0.0562982 0.459853 7
26 1 1.43165 -2.33313 21.7895 -0.00595546 -0.022655 0.476887 4
38 1 2.73042 -0.30165 21.6436 0.0170593 -0.0160733 0.464795 3
40 1 2.63886 -1.58395 22.2216 0.0133813 -0.00209423 0.49007 3
51 1 -0.637518 1.16607 20.8328 0.0383576 0.0314587 0.465072 6
10 1 -0.0208296 2.72148 21.9961 -0.0193067 -0.0389688 0.477288 3
32 1 -1.18066 2.34519 21.6072 -0.0109825 0.0364568 0.483031 4
49 1 0.808758 1.22162 20.8554 0.0486108 0.0460575 0.460102 5
31 1 1.08894 2.26203 21.5763 -0.0238001 0.0141918 0.473836 4
55 1 2.03745 2.07159 22.2616 -0.0538012 -0.00634287 0.480515 3
52 1 -0.758361 -3.03454 22.525 -0.0440022 0.0189717 0.4662 3
20 1 -3.20833 -1.17689 23.2993 0.0132501 0.0491713 0.494576 2
36 1 -1.1423 -3.40733 23.8474 0.0118221 -0.00800388 0.501623 3
4 1 -3.76431 -0.392498 24.146 -0.012918 0.00479357 0.52358 3
60 1 -2.27445 -2.56403 24.1312 0.00665797 0.0513786 0.492729 2
19 1 -3.2356 -1.09751 25.5419 -0.00718427 -0.000167673 0.47148 3
58 1 -2.01385 -2.06295 25.4731 0.0200512 -0.0214722 0.443506 3
34 1 -0.985778 -2.64073 26.2591 -0.0374012 -0.0434203 0.49065 3
48 1 -0.570337 -1.63414 27.1522 0.0556517 -0.0281465 0.513233 3
24 1 -1.62586 -0.226353 27.0958 -0.0252647 -0.0148431 0.495047 2
50 1 0.237474 -2.64663 22.3538 -0.0169459 0.0600318 0.48019 2
16 1 3.58713 -1.74009 23.3733 0.0371398 0.00385963 0.470703 3
35 1 1.31032 -3.38135 23.6051 0.0266505 0.00790839 0.431369 2
2 1 2.87469 -0.626367 24.0087 -0.0539399 0.0254422 0.484008 4
59 1 2.12261 -2.25205 24.1056 -0.0210355 0.0206416 0.463946 4
12 1 0.329523 -3.12781 24.5371 -0.00617618 0.0189596 0.508055 3
11 1 0.365877 -3.1246 25.7706 0.0158467 -0.0397743 0.491391 3
15 1 2.97315 -0.963862 25.5135 -0.0506648 0.0251665 0.482651 3
57 1 1.57698 -1.50416 25.2323 -0.0396288 0.0395251 0.500314 3
33 1 1.32078 -2.5094 26.537 0.0125548 0.0151777 0.523137 3
46 1 0.578076 -1.58044 27.0691 -0.00795814 -0.0247506 0.509014 3
22 1 1.18917 -0.0416364 26.9323 0.0131835 0.000365431 0.476911 3
18 1 -3.13532 0.793705 22.3941 -0.00673127 -0.0236959 0.492883 3
56 1 -2.38445 1.73536 22.2546 0.00574978 -0.0493131 0.408352 3
9 1 -0.0864631 3.41326 23.1619 0.0136334 -0.00240275 0.455967 3
3 1 -3.68647 0.676538 23.626 -0.00644445 0.0117439 0.478397 3
54 1 -2.43154 2.65709 23.5415 0.0187973 0.00305722 0.466502 3
30 1 -1.08726 3.19857 23.9154 -0.0275702 -0.0207339 0.493764 3
17 1 -2.48933 1.33301 24.243 0.0553939 -0.0607344 0.547539 3
41 1 -2.60658 1.42174 25.6269 0.0223144 0.0162197 0.503983 3
47 1 -0.833874 3.40832 25.1565 -0.0581702 0.0339408 0.476211 4
23 1 -1.78177 2.49442 26.3273 -0.0491012 -0.0392868 0.49647 3
6 1 -1.03105 1.68478 26.843 0.034037 0.0410017 0.498769 2
43 1 -2.90127 -0.033978 26.3231 -0.00241876 -0.0254211 0.508534 3
14 1 2.91578 0.802522 22.3971 -0.0345963 -0.0189817 0.48224 3
1 1 3.73844 0.386183 23.5345 -0.000457148 -0.00794048 0.490237 3
53 1 2.4117 2.8862 23.5491 -0.00594074 0.0327467 0.483616 3
29 1 1.09525 3.56119 23.9538 -0.00786854 0.0314505 0.487904 3
13 1 3.04107 1.80481 24.2899 0.00478641 -0.0258249 0.494083 3
37 1 3.52977 1.61288 25.7944 0.0568421 -0.0172296 0.486804 2
45 1 0.56537 3.54045 25.2531 0.0184079 0.0576962 0.464511 3
21 1 0.535244 2.87221 26.0969 -0.0519058 0.0205722 0.527934 3
5 1 0.73104 1.50585 26.6923 -0.0348503 0.0129007 0.482421 3
39 1 2.61946 0.258157 26.1345 -0.0102207 -0.0134406 0.484435 3
