ITEM: TIMESTEP
50800
ITEM: NUMBER OF ATOMS
60
ITEM: BOX BOUNDS pp pp pp
-1.4715758017245314e+01 1.5057610017245315e+01
-1.2710055654020760e+01 1.2664508654020761e+01
-5.0001035148846022e+01 1.0000103514884636e+02
ITEM: ATOMS id type x y z vx vy vz c_coord
8 1 -1.84871 -8.94124 53.6832 -0.036107 -0.073421 0.428877 1
7 1 -0.748372 -9.70976 54.0862 0.00700716 -0.129893 0.452349 1
28 1 -2.49798 -3.9412 57.9441 -0.0220983 -0.0518882 0.503858 2
44 1 -3.52559 -3.29396 57.5657 -0.0300559 -0.0534987 0.45428 1
42 1 -6.38618 -0.268518 58.0267 -0.0627929 0.000835642 0.526795 1
52 1 -1.22208 -4.28156 58.3465 0.0284322 0.0194572 0.43917 2
36 1 -0.837607 -2.66212 58.1344 -0.0185822 0.0103247 0.456349 3
26 1 1.40625 -1.6187 57.4509 -0.0108572 0.0154802 0.46039 2
40 1 3.07733 -1.67468 57.8594 0.0210142 0.00701071 0.464699 2
35 1 0.468692 -2.06235 57.5504 -0.0321665 -0.00307897 0.452999 2
27 1 -7.3905 0.631325 58.1396 -0.0318578 0.0299961 0.528697 1
10 1 -2.0327 1.35421 56.2733 -0.0296676 -0.0365734 0.531624 1
32 1 -1.47472 1.68532 57.4948 0.0119467 0.0326563 0.435974 2
56 1 -1.57244 1.29888 58.5708 0.0120444 -0.0286903 0.456496 2
25 1 2.84106 2.19185 55.8968 0.0225762 0.0159482 0.517235 2
49 1 2.52837 3.60081 55.2858 0.0141005 0.00724438 0.484841 3
51 1 1.25606 3.1642 54.964 0.0263053 0.0323202 0.434062 1
38 1 3.4365 1.47604 56.9068 -0.00145167 0.0333969 0.484979 2
31 1 2.41788 4.63613 56.5007 -0.00174521 0.0109954 0.46947 2
55 1 2.42671 3.60312 57.411 0.0335276 0.0613365 0.478462 2
14 1 3.33228 2.46467 58.2406 0.030921 0.0158502 0.489593 3
50 1 -1.15517 -1.84159 59.1023 -0.0174818 -0.0336363 0.446159 2
3 1 -5.06777 -0.606692 59.4444 -0.0135549 -0.027327 0.498622 1
20 1 -2.29736 -2.15248 59.8562 -0.0632745 -0.0132181 0.465517 3
4 1 -3.35761 -1.15214 60.3049 0.0277326 -0.0168923 0.489654 2
60 1 -2.51258 -3.46938 60.4647 0.0191384 0.00460628 0.458827 2
12 1 -1.33517 -4.10888 61.1034 -0.00871641 -0.0368268 0.481961 2
19 1 -2.90263 -1.31225 61.6885 -0.0135982 -0.00478453 0.490981 2
58 1 -2.57863 -2.81918 62.336 -0.0441805 -0.0154911 0.498923 3
11 1 -1.86198 -3.99438 62.482 -0.0502736 -0.00537091 0.519218 3
34 1 -2.16936 -2.91216 63.6121 0.00430858 0.016587 0.508167 3
48 1 -1.47002 -1.83021 64.13 -0.00453699 0.0118071 0.481027 2
24 1 -2.25136 -0.170503 63.9712 -0.0259082 0.0243308 0.449469 1
33 1 -0.193665 -1.50244 64.6769 -0.057679 0.00720941 0.531255 2
16 1 3.52228 -1.33193 59.0401 0.0290822 -0.00251058 0.516921 3
59 1 3.43031 -1.85363 60.5147 0.0333108 0.00154553 0.475149 2
2 1 2.88603 -0.0849463 59.8621 0.0144402 0.017366 0.463695 3
15 1 2.72295 -0.129825 61.1531 0.00279368 -0.00243712 0.506801 2
57 1 2.74899 -2.10177 61.5896 0.0227095 -0.0227864 0.484677 1
18 1 -5.28294 0.62815 59.2702 -0.0294117 -0.0470175 0.478327 1
9 1 0.0494936 3.9584 60.6803 0.0103718 -0.0169888 0.528444 2
54 1 -1.68001 0.946458 60.0467 0.00507995 0.012266 0.45932 2
17 1 -2.16514 1.62102 60.8927 0.0228781 -0.00288835 0.53101 2
30 1 -1.19807 4.07991 61.2771 0.0244459 0.0153586 0.512003 2
43 1 -2.29413 0.270135 62.8505 -0.0151155 0.0471796 0.47452 2
41 1 -2.73814 1.4169 62.4247 0.0226069 -0.0106062 0.520714 3
47 1 -1.6239 3.71597 62.5302 0.00210738 0.0362343 0.485273 2
23 1 -2.0688 2.57875 62.9082 -0.00596013 0.021006 0.471084 2
21 1 -1.32703 5.28206 63.4646 -0.0491741 0.0075137 0.478951 1
1 1 2.88905 1.58501 59.4427 -0.0141082 0.0463775 0.474773 3
29 1 1.18518 3.06201 61.1588 -0.0280464 0.0168696 0.519372 2
13 1 3.22722 2.03925 60.8644 0.00423318 0.0113594 0.463952 2
46 1 0.361267 0.159141 64.4096 0.0108533 0.00768786 0.49097 3
53 1 2.0299 3.16514 62.3561 -0.015975 0.016372 0.495983 2
39 1 2.45614 0.541236 62.5831 0.0164625 0.02 0.445689 3
37 1 2.86247 2.0408 62.4274 -0.0435552 0.0082361 0.410838 3
22 1 1.28246 0.304103 63.2472 0.00166178 -0.0254292 0.456614 2
45 1 -1.82233 6.77374 63.5942 -0.0233593 0.0151874 0.516251 1
5 1 0.293041 2.78849 65.5286 0.0509952 0.0091218 0.514062 1
6 1 0.286981 1.33174 65.0911 -0.0398826 0.0205236 0.558203 2
