ITEM: TIMESTEP
41700
ITEM: NUMBER OF ATOMS
60
ITEM: BOX BOUNDS pp pp pp
-1.4715758017245314e+01 1.5057610017245315e+01
-1.2710055654020760e+01 1.2664508654020761e+01
-5.0001035148846022e+01 1.0000103514884636e+02
ITEM: ATOMS id type x y z vx vy vz c_coord
7 1 -0.464612 -7.65408 46.0104 0.0194343 -0.12509 0.452955 1
8 1 -1.60288 -7.29639 45.7209 -0.04853 -0.0782611 0.428239 1
25 1 2.71787 1.73282 46.6026 -0.00113794 0.0183284 0.480798 2
27 1 -6.57271 -0.0984226 48.4776 -0.0559141 0.0436331 0.530912 1
28 1 -2.26527 -3.3393 48.944 0.0167859 -0.0448393 0.495417 2
44 1 -3.08233 -2.3357 49.1451 -0.0315574 -0.0416345 0.475039 1
52 1 -1.57137 -3.98968 49.9508 -0.00250834 -0.0230666 0.47692 2
20 1 -1.99237 -1.85572 51.264 0.0259051 -0.0157979 0.51284 3
36 1 -0.344265 -2.78717 50.2587 -0.0106595 0.0238936 0.412887 3
50 1 -0.825573 -1.58114 50.5658 -0.0115095 -0.00888154 0.477928 2
4 1 -3.46444 -1.04513 51.5339 0.00280263 -0.00531082 0.524441 3
60 1 -2.36957 -3.10523 51.9876 -0.0346568 -0.05945 0.469011 3
12 1 -1.09326 -3.83448 51.9598 -0.027757 0.020001 0.477396 2
3 1 -4.44618 -0.0974219 50.5942 -0.0581884 -0.0118432 0.467118 2
26 1 1.64212 -1.98018 48.6838 0.00969455 0.0271145 0.490314 2
40 1 3.11416 -1.73869 49.139 -0.0273076 -0.00261453 0.485803 2
35 1 0.392911 -2.24542 49.4169 -0.0139396 0.00506184 0.464013 2
16 1 3.10051 -1.21948 50.7993 0.0227107 -0.0149242 0.427865 3
59 1 3.01589 -2.43656 51.4392 0.0327811 0.0278192 0.491228 2
15 1 2.36836 -0.492109 52.6116 0.0225113 0.0259329 0.502603 3
32 1 -1.86266 1.29809 48.5152 0.0217351 0.0065864 0.498786 2
10 1 -1.33873 1.94291 47.6893 -0.0402847 -0.0244114 0.423524 1
42 1 -5.28017 0.0424531 48.8168 -0.0563856 -0.0300859 0.48974 1
18 1 -4.87691 1.16515 50.3422 -0.0114502 -0.0258291 0.507823 1
56 1 -1.75974 1.61617 50.1611 0.0140371 0.00479094 0.485925 2
9 1 -0.0692515 3.90972 51.475 -0.0335611 0.022142 0.505251 2
54 1 -1.56638 0.680113 51.3136 -0.00309123 -0.00402265 0.510544 2
17 1 -2.91122 1.71247 51.673 0.0293035 -0.00229017 0.524093 2
30 1 -1.17293 3.78698 52.102 0.00764491 0.0155299 0.478726 2
49 1 2.06273 3.27396 46.673 0.0244874 0.0425911 0.465568 3
51 1 0.915849 2.62465 46.9397 0.0153002 0.028599 0.450506 1
38 1 3.19176 1.39166 48.0118 0.0351717 -0.014388 0.498242 2
31 1 2.44968 3.96479 48.0469 -0.00153508 0.0427113 0.463271 2
55 1 1.97337 2.89394 48.9725 0.00904909 0.0451742 0.445638 2
14 1 2.64722 1.63527 49.3645 0.0386387 0.0459028 0.48877 3
1 1 3.26371 1.40484 50.8466 -0.0102467 0.00831645 0.487027 3
2 1 2.71246 0.0408076 51.1115 -0.00591056 -0.0105398 0.461441 3
29 1 1.39047 3.19001 51.9535 0.0284456 -0.0372337 0.516871 2
13 1 3.22668 1.88793 52.3845 -0.0113214 -0.00285198 0.463325 3
58 1 -2.10748 -2.55477 53.1883 -0.0121904 0.0155918 0.479311 4
19 1 -2.88954 -1.08967 52.8924 0.0199961 0.00489473 0.456293 3
11 1 -1.07734 -3.6452 53.5575 -0.0408286 -0.028677 0.514946 3
34 1 -1.90768 -2.89186 54.4879 -0.0133972 -0.0082052 0.49181 3
43 1 -2.48882 -0.148863 54.0111 0.0069791 -0.0239421 0.447472 2
48 1 -1.2859 -2.04712 55.423 -0.0311909 0.0355381 0.479125 2
24 1 -1.76712 -0.825081 55.7509 -0.00641638 0.00406152 0.461592 1
57 1 2.45206 -1.55485 52.7082 0.00313483 -0.000646177 0.500499 2
33 1 0.415171 -1.68153 54.9288 -0.0174799 0.00326323 0.525546 1
46 1 0.31273 -0.362862 55.1779 -0.0153316 0.0453901 0.520828 2
41 1 -2.49323 1.28296 53.2071 -0.0151391 0.0307202 0.471821 3
47 1 -1.44644 3.75437 53.8218 0.000737786 0.0124357 0.489223 3
45 1 -1.31625 6.14856 54.1148 -0.0243531 0.0227338 0.521228 1
23 1 -2.21052 2.32183 54.1284 -0.00559321 -0.0251104 0.481219 2
21 1 -0.707954 4.71891 54.4683 -0.0356184 0.0522605 0.493981 2
5 1 -0.552403 2.00848 55.9797 0.0410665 0.041656 0.525764 1
53 1 1.99552 2.92739 53.0228 -0.00486356 0.0213038 0.513311 2
37 1 3.45583 1.49086 54.0874 -0.0296155 0.0257059 0.499364 2
39 1 2.46168 0.648964 53.8856 0.00484281 -0.0201111 0.453297 3
6 1 0.792332 1.83134 55.4279 -0.0244459 -0.0207013 0.526603 2
22 1 1.2538 0.692784 55.0614 0.012633 -0.0325804 0.442544 3
