ITEM: TIMESTEP
11800
ITEM: NUMBER OF ATOMS
168
ITEM: BOX BOUNDS pp pp pp
-1.4715758017245314e+01 1.5057610017245315e+01
-1.2710055654020760e+01 1.2664508654020761e+01
-5.0001035148846022e+01 1.0000103514884636e+02
ITEM: ATOMS id type x y z vx vy vz c_coord
92 1 -10.8933 -9.21195 20.0006 0.00194901 -0.000277407 -7.21408e-06 3
93 1 -10.9516 -6.80115 20.0021 -0.00269856 0.0010217 4.07059e-05 3
103 1 -9.52499 -9.3143 20.0024 -0.000755501 0.00671212 4.85861e-05 3
104 1 -8.98034 -8.0582 20.0073 0.00365865 -0.00264355 0.000186667 3
105 1 -9.63036 -6.83985 20.0079 0.0012649 -0.0071159 0.000244453 3
122 1 -7.58131 -8.04558 20.0092 0.00763513 -0.000188269 0.000212709 3
132 1 -6.764 -9.20769 20.0059 0.00777229 -0.00178304 0.000165896 3
133 1 -6.85196 -6.84262 20.0056 0.00803063 -0.00289048 0.000185902 3
143 1 -5.35523 -9.29586 20.0049 0.0118236 0.000949901 7.09496e-05 3
144 1 -4.71233 -8.1145 19.9997 0.00695661 0.00796976 -5.8345e-05 3
145 1 -5.451 -6.88783 19.9941 0.00772951 0.0112769 -0.000283116 3
162 1 -3.28999 -8.12143 19.9925 0.00489872 0.000785453 -7.23809e-05 3
172 1 -2.40344 -9.23109 19.9981 -0.000431532 -0.00352731 6.41052e-05 3
173 1 -2.59223 -6.91799 19.964 0.00223279 0.0156146 -0.00116648 3
183 1 -0.955219 -9.23178 19.9964 -0.001253 -0.00948763 -1.78184e-06 3
184 1 -0.292999 -8.0014 19.9821 -0.00220545 0.000424804 -0.000461908 3
185 1 -1.13403 -6.8145 19.9539 0.00505433 -0.00171259 -0.00101445 3
202 1 1.13846 -7.99849 19.9823 -0.00871721 -0.000615434 -0.000456237 3
212 1 1.90739 -9.21115 19.9968 -0.0112295 -0.00227062 -0.000296726 3
213 1 1.74653 -6.72285 19.9599 -0.0120372 -0.0165164 -0.00236636 3
223 1 3.32 -9.21724 19.9987 -0.00753599 -0.0119313 -0.000241865 3
224 1 3.95946 -7.968 19.9964 -0.00774229 -0.00843899 -0.000383792 3
225 1 3.15957 -6.78763 19.975 -0.0163179 -0.0172478 -0.000882713 3
242 1 5.41818 -7.9388 20.0041 -0.00710666 -0.00954487 -0.000184448 3
252 1 6.16454 -9.16276 20.0057 0.00220738 -0.00368865 3.33103e-05 3
253 1 6.08881 -6.68219 20.0012 -0.00853005 -0.0101812 -0.000269302 3
263 1 7.5764 -9.21922 20.0057 0.00287523 0.00541606 0.000115689 3
265 1 7.52162 -6.69795 20.0093 -0.00948696 0.0074639 -3.03692e-05 3
264 1 8.21508 -7.94638 20.0094 0.00124698 0.0127635 0.000163902 3
282 1 9.66143 -7.95927 20.0058 0.00274168 0.0019669 0.000119738 3
292 1 10.4527 -9.17994 20.0015 -0.00772811 0.00499907 7.52016e-05 3
293 1 10.481 -6.76728 20.0051 0.006175 0.00618555 7.67848e-05 3
94 1 -10.9491 -4.32693 20.0031 -0.00147387 -0.00586427 0.000108457 3
95 1 -10.969 -1.87171 20.003 0.00195834 -0.000831264 0.000172454 3
106 1 -9.016 -5.6251 20.0086 -0.0103587 0.00668421 0.000240701 3
107 1 -9.62429 -4.42085 20.0065 -0.0130611 0.00505494 0.00024848 3
108 1 -9.06442 -3.16892 20.0015 0.00378507 -0.00726924 0.000199859 3
109 1 -9.62139 -1.89087 20.001 -0.00485734 -0.00108579 0.000194896 3
110 1 -8.97843 -0.643494 19.9937 0.00661207 -0.00520548 -6.20814e-05 3
123 1 -7.62267 -5.65606 20.0045 0.000237541 0.00108356 0.000184001 3
124 1 -7.66932 -3.22798 19.9861 0.00915697 0.00477066 -0.000518701 3
125 1 -7.56732 -0.654169 19.9654 0.0109371 0.00027565 -0.000816378 3
134 1 -6.95885 -4.46282 19.9854 0.00152742 -0.00278818 -0.000500184 3
135 1 -6.91418 -1.96262 19.9523 0.00990099 0.00123213 -0.0016775 3
146 1 -4.82578 -5.63129 19.9632 0.0156953 0.00718704 -0.00097572 3
147 1 -5.59375 -4.41191 19.9523 -0.0193132 -0.00774575 -0.00266066 3
148 1 -4.9847 -3.20411 19.905 -0.0213414 -0.0154765 -0.00294298 4
149 1 -5.58743 -2.03517 19.9101 -0.0264592 -0.0158527 -0.00441327 3
150 1 -5.0832 -0.758287 19.9204 -0.0537768 -0.00293092 -0.0057448 3
163 1 -3.3597 -5.72775 19.9305 -0.0166272 -0.045397 -0.00551822 3
164 1 -3.75766 -3.78461 20.1209 -0.0505915 -0.0178357 0.0340239 3
165 1 -4.00886 -1.13869 20.2141 -0.0376804 -0.058594 0.0451629 4
174 1 -2.82491 -4.54404 19.8911 -0.0429493 -0.010726 -0.00355937 3
175 1 -3.57863 -2.39677 20.2773 -0.102599 -0.10941 0.020501 4
186 1 -0.47498 -5.60009 19.9043 -0.0107223 -0.0161717 -0.00368412 4
187 1 -1.6049 -4.81194 20.0017 0.0163091 -0.0268638 0.0184918 3
188 1 -0.702904 -3.86365 20.1257 -0.0367964 -0.0946918 0.0137165 6
189 1 -1.66827 -1.52914 20.4722 0.00475336 0.0766173 0.0753215 6
190 1 -0.702281 -0.256799 20.1273 0.00953106 -0.00923128 0.0399368 6
203 1 0.913346 -5.60061 19.9187 -0.00604373 -0.012002 -0.0016763 3
204 1 1.00116 -3.67083 20.2068 0.0417258 -0.110569 0.0143041 4
205 1 0.837486 -0.24158 20.1463 -0.0387565 0.013551 0.0240017 8
214 1 1.96649 -4.80483 20.1337 0.0691233 -0.0788476 0.0526218 3
215 1 1.15547 -1.43948 20.3466 -0.0736838 0.115434 0.0690794 7
226 1 3.83825 -5.54431 19.955 0.000497066 -0.0248547 -0.00196239 3
227 1 3.25301 -4.30815 19.9368 0.0317251 -0.036487 -0.000889559 3
228 1 4.21083 -3.52065 20.3305 -0.00187998 -0.0402149 0.0497854 3
229 1 3.485 -2.52137 20.1905 0.0988199 -0.114083 0.0202687 2
230 1 4.42596 -0.816252 20.2245 0.113775 -0.0232801 0.0225566 1
243 1 5.3189 -5.49026 19.9798 -0.00595522 -0.0165202 -0.000619988 3
244 1 5.5533 -3.04843 19.9119 0.0686427 -0.00388354 -0.0069681 3
245 1 5.78881 -0.680293 20.0674 0.0572338 -0.00306327 0.0229123 3
254 1 6.12608 -4.34215 19.9723 0.000536781 -0.0135648 -0.00232442 3
255 1 6.17291 -1.81888 19.9516 0.0292754 -0.0107381 -0.000997288 3
269 1 7.53648 -1.88755 19.9798 0.00561043 -0.0030346 -0.00135732 3
267 1 7.55699 -4.30295 19.9964 -0.00712658 0.00801106 -0.000834997 3
216 1 1.01393 -0.551718 20.6547 -0.0420092 -0.0948647 0.109605 5
266 1 8.3218 -5.52929 20.0087 -0.00408179 0.00882397 -3.36127e-05 3
268 1 8.33186 -3.07474 19.9974 0.00173905 0.00205664 -0.000518443 3
270 1 8.27053 -0.645795 19.9904 0.0127712 -0.00549608 -0.000440955 3
283 1 9.76668 -5.53819 20.0087 -0.00297931 0.0032335 9.46528e-05 3
284 1 9.76583 -3.0902 20.0052 -0.00217921 -0.00449589 -0.000153703 3
285 1 9.7105 -0.655855 20.002 0.00578201 0.00544352 -0.000265312 3
294 1 10.487 -4.32585 20.0056 -0.00312999 -0.00143868 1.4562e-05 3
295 1 10.5129 -1.86298 20.0032 0.000349042 -0.00220993 -0.000171124 3
96 1 -10.948 0.611382 20.0029 0.00415116 0.00368345 0.00017251 3
97 1 -10.9524 3.03412 20.0028 -0.000447844 -0.0009626 0.000124111 3
98 1 -10.967 5.53684 20.0025 -0.00471262 -0.00658437 5.89086e-05 3
111 1 -9.60203 0.628315 19.9982 -0.000132986 -0.00370336 9.91218e-05 3
112 1 -9.0278 1.91679 19.9962 0.0080234 -0.00175798 -6.78054e-05 3
113 1 -9.6146 3.16248 20.003 -0.00202825 -0.000483241 0.000164268 3
114 1 -8.93978 4.36147 20.0047 0.000434813 0.00600376 0.000139593 3
115 1 -9.63519 5.54864 20.0072 -0.00631967 0.0027491 0.000199865 3
126 1 -7.59731 1.85095 19.9725 0.00998788 -7.95502e-05 -0.000783365 3
127 1 -7.50104 4.3443 19.9927 -0.00218884 -0.00206476 -0.000248348 3
136 1 -6.87359 0.6009 19.9415 0.00258756 0.000605889 -0.00197254 3
137 1 -6.90474 3.0851 19.9664 -0.00933296 0.00477777 -0.000625651 3
138 1 -6.7701 5.58606 19.9953 -0.00626639 0.00333836 -2.97465e-06 3
151 1 -5.54957 0.612082 19.8935 -0.0205546 -0.00383007 -0.00220442 3
152 1 -5.3002 1.89585 20.0263 -0.0327081 0.0104023 0.0195134 3
153 1 -5.53565 3.1383 19.9262 -0.0307926 0.0195957 -0.00299136 4
154 1 -4.72806 4.32454 19.9338 -0.00769708 0.00272405 -0.00114223 3
155 1 -5.36171 5.56253 19.9717 0.00834614 -0.00682889 -0.00129002 3
166 1 -3.97332 2.41864 20.1346 -0.104286 0.0823286 0.0124721 3
167 1 -3.41209 4.5478 19.8509 -0.0280413 0.0412199 -0.0141376 3
176 1 -2.94921 0.976376 20.4312 0.01745 0.0469853 0.0476576 4
177 1 -2.86296 3.87245 20.3068 -0.0304825 0.0967003 0.0554246 3
178 1 -2.60405 5.59596 19.9237 0.00479891 0.00388477 -0.00350757 4
191 1 -0.829534 0.280064 19.9495 0.0716605 0.0937554 0.0443665 6
192 1 -1.05078 1.53504 20.344 -0.0289245 -0.101173 0.0484441 5
193 1 -1.58468 3.67825 20.226 -0.0519173 0.13744 0.0338124 3
194 1 -0.330984 4.80944 20.0265 0.00694272 0.083168 0.00996328 3
195 1 -1.22497 5.63779 19.9106 -0.00373219 0.00706722 -0.00188755 3
206 1 1.33872 1.43947 20.5132 0.0217833 -0.0962285 0.0574591 4
207 1 0.840226 4.67971 20.0461 0.00787775 0.0534386 0.00619098 2
217 1 1.86072 3.14533 20.2528 0.0906309 0.0413668 0.0380195 2
218 1 1.84235 5.51584 19.923 -0.000257331 0.0125747 -0.00113748 3
231 1 3.58463 1.26692 20.4902 0.0715109 0.109673 0.0611742 4
232 1 4.41343 2.09492 20.1543 0.0969051 0.0493133 0.0399233 3
233 1 3.9264 3.21029 20.3448 0.0784535 -0.00273608 0.0449898 3
234 1 4.04756 4.54131 19.8455 0.0296528 0.0743374 -0.0169358 3
235 1 3.16369 5.47354 19.9505 -0.000936605 0.0258715 0.00035946 3
246 1 5.37112 1.77307 19.9214 0.0527968 -0.00666813 -0.00399934 3
247 1 5.30456 4.28204 19.9535 0.0278081 0.0153012 -0.0034186 4
256 1 6.08435 0.60367 19.9408 0.0274545 0.0122156 -0.00112413 3
257 1 5.99967 3.01767 19.9528 0.0242091 0.00697498 -0.0040468 3
258 1 6.02793 5.44851 19.9883 -0.0037503 0.0258243 7.98209e-06 3
271 1 7.4746 0.564293 19.9742 0.00722119 0.000482888 -0.00134204 3
273 1 7.42982 3.04312 19.9847 -0.00565799 -0.00113455 -0.000972876 3
275 1 7.46391 5.48235 20.003 -0.0124148 -0.00390657 -0.000382834 3
272 1 8.19487 1.80228 19.9909 0.00429427 -0.000190004 -0.000629711 3
274 1 8.23918 4.25194 20.0023 -0.00489873 -0.00111768 -0.000355292 3
286 1 9.6479 1.78907 20.0031 -0.00364599 0.00941145 -0.00027467 3
287 1 9.70312 4.2408 20.0073 -0.00553075 -0.00156557 -8.53913e-05 3
296 1 10.4317 0.585616 20.0032 0.000898004 0.00317253 -0.000201202 3
297 1 10.4208 3.00493 20.0049 -0.0106893 0.0054386 -6.42185e-05 3
298 1 10.4885 5.45882 20.0057 0.000787003 -0.00634237 4.84035e-05 3
99 1 -10.8905 7.97489 20.0016 0.000376636 0.00361241 2.08151e-05 3
116 1 -8.96009 6.76689 20.0089 0.00928558 0.00369637 0.000232846 3
117 1 -9.5372 8.01592 20.0058 0.00892732 0.00245801 0.000169426 3
118 1 -8.80449 9.19978 20.0041 0.000675974 0.00867451 5.60566e-05 3
128 1 -7.53536 6.80587 20.0082 0.00081809 -0.00466141 8.13119e-05 3
129 1 -7.40251 9.25026 20.0051 0.00618 -0.000820884 7.5272e-05 3
139 1 -6.79842 8.01222 20.0073 0.0008956 -9.9264e-05 0.000188317 3
156 1 -4.65796 6.80514 19.9844 0.0159505 -0.00120301 -0.000533226 3
157 1 -5.36677 8.01304 20.0028 0.0129148 -0.00481362 -1.83986e-05 3
158 1 -4.54341 9.18498 20.0027 0.000670718 0.00158387 4.90234e-05 3
168 1 -3.24793 6.80382 19.9677 0.00730779 -0.0106032 -0.00117235 3
169 1 -3.12666 9.25124 19.9996 -0.00839401 0.00414106 2.15248e-05 3
179 1 -2.48817 8.0048 19.9871 -0.00156143 0.000215516 -0.000209052 3
196 1 -0.384505 6.73641 19.9505 -0.00354907 0.00212575 -0.00174851 3
197 1 -1.05257 7.97379 19.9809 0.00276943 -0.00218635 -0.000493189 3
198 1 -0.254402 9.15539 19.9946 0.00530093 -0.00555288 -0.000172156 3
208 1 1.07964 6.69837 19.9532 -0.0115955 0.0039043 -0.00127005 3
209 1 1.13512 9.16756 19.9949 -0.00108906 0.00572235 -0.000145671 3
219 1 1.82879 7.95006 19.984 -0.0142851 -0.00248172 -0.000801796 3
236 1 3.89103 6.6613 19.9793 -0.0112804 0.016494 -0.000924443 3
237 1 3.28124 7.97192 19.9916 -0.0102078 0.0060829 -0.000428193 3
238 1 4.10248 9.15648 20.0007 -0.00474685 0.00486777 -0.000171127 3
248 1 5.35083 6.68048 19.9954 -0.013143 0.0126758 -0.000473204 3
249 1 5.50789 9.1517 20.0039 -0.00481168 0.00403959 -0.000120476 3
259 1 6.12785 7.90315 20.0059 -0.00740537 0.00929976 -9.72002e-05 3
277 1 7.53801 7.90935 20.0087 -0.00573279 -0.00133569 8.24237e-05 3
276 1 8.29607 6.66965 20.0097 -0.00810942 -0.00527983 5.65198e-05 3
278 1 8.29489 9.13086 20.0049 -0.000359957 -0.00814469 0.000128639 3
288 1 9.74385 6.69692 20.0077 -0.00214648 -0.0100434 0.000126969 3
289 1 9.69244 9.15166 20.003 -0.000488435 -0.0050176 8.41287e-05 3
299 1 10.4532 7.93737 20.0038 -0.0011386 -0.0084479 0.000100973 3
