ITEM: TIMESTEP
12100
ITEM: NUMBER OF ATOMS
168
ITEM: BOX BOUNDS pp pp pp
-1.4715758017245314e+01 1.5057610017245315e+01
-1.2710055654020760e+01 1.2664508654020761e+01
-5.0001035148846022e+01 1.0000103514884636e+02
ITEM: ATOMS id type x y z vx vy vz c_coord
92 1 -10.8923 -9.21241 20.0006 0.00154942 -0.00125937 -8.97086e-06 3
93 1 -10.9533 -6.8004 20.0021 -0.00286612 0.0014585 4.03808e-05 3
103 1 -9.52527 -9.31023 20.0024 -0.000157047 0.00680887 4.90618e-05 3
104 1 -8.97783 -8.05972 20.0074 0.00469988 -0.00243618 0.000190621 3
105 1 -9.62943 -6.84414 20.0081 0.00185145 -0.00714625 0.000249099 3
122 1 -7.57645 -8.04576 20.0093 0.00855973 -0.000429496 0.000213538 3
132 1 -6.75915 -9.20884 20.006 0.00839509 -0.00206314 0.00016634 3
133 1 -6.84738 -6.84441 20.0057 0.00721759 -0.00306675 0.000194926 3
143 1 -5.34811 -9.29544 20.0049 0.0118716 0.000453711 7.21685e-05 3
144 1 -4.70802 -8.10954 19.9996 0.00742052 0.00854983 -6.26402e-05 3
145 1 -5.44635 -6.88099 19.9939 0.00772036 0.0114159 -0.000283552 3
162 1 -3.28682 -8.12114 19.9925 0.00569561 0.000219446 -6.19197e-05 3
172 1 -2.40346 -9.23318 19.9982 0.000334225 -0.00341969 6.80017e-05 3
173 1 -2.59047 -6.90838 19.9632 0.00368192 0.0162766 -0.00123521 3
183 1 -0.956312 -9.23762 19.9964 -0.00236834 -0.00993767 4.28973e-06 3
184 1 -0.294415 -8.00086 19.9819 -0.00255558 0.00137396 -0.000514954 3
185 1 -1.1312 -6.81626 19.9533 0.00432565 -0.00424742 -0.00095965 3
202 1 1.13315 -7.99913 19.9821 -0.00893281 -0.00150941 -0.000402435 3
212 1 1.90058 -9.21229 19.9966 -0.0114515 -0.00155792 -0.000315519 3
213 1 1.73913 -6.73383 19.9584 -0.0123552 -0.0189535 -0.00268117 3
223 1 3.31542 -9.2245 19.9986 -0.00777547 -0.0122523 -0.000240349 3
224 1 3.95499 -7.97307 19.9962 -0.00722432 -0.0083737 -0.000397067 3
225 1 3.15029 -6.79753 19.9745 -0.0148241 -0.0156648 -0.000930955 3
242 1 5.41382 -7.94465 20.004 -0.00742046 -0.00993778 -0.000191953 3
252 1 6.16592 -9.1651 20.0058 0.00240212 -0.00410096 2.83133e-05 3
253 1 6.0837 -6.68845 20.001 -0.00857585 -0.0105463 -0.000264587 3
263 1 7.57808 -9.21589 20.0058 0.00273547 0.00566867 0.000115383 3
265 1 7.51604 -6.6935 20.0093 -0.0090966 0.00738548 -3.17718e-05 3
264 1 8.21603 -7.93885 20.0095 0.00192578 0.0122958 0.000159424 3
282 1 9.66339 -7.95825 20.0059 0.00378171 0.00143945 0.000116903 3
292 1 10.4484 -9.17694 20.0015 -0.00685897 0.00499891 7.67451e-05 3
293 1 10.4846 -6.76361 20.0052 0.00607039 0.00605003 7.67755e-05 3
94 1 -10.9501 -4.33046 20.0032 -0.00186998 -0.0058834 0.00010987 3
95 1 -10.9677 -1.87214 20.0031 0.00208475 -0.000593478 0.000178935 3
106 1 -9.02188 -5.62125 20.0087 -0.00919858 0.00610861 0.000246838 3
107 1 -9.63218 -4.41765 20.0067 -0.0132201 0.00559529 0.000256879 3
108 1 -9.06175 -3.17315 20.0016 0.00511375 -0.00677518 0.00019818 3
109 1 -9.62417 -1.89153 20.0011 -0.00435422 -0.00113625 0.000198958 3
110 1 -8.97424 -0.646551 19.9936 0.00732967 -0.00498017 -6.94902e-05 3
123 1 -7.62245 -5.65548 20.0046 0.000413271 0.000701942 0.000185409 3
124 1 -7.6634 -3.22463 19.9857 0.0104506 0.00650782 -0.000589362 3
125 1 -7.56061 -0.654436 19.9649 0.0114165 -0.00117133 -0.000853276 3
134 1 -6.95808 -4.4642 19.9851 0.00114335 -0.00186638 -0.000502652 3
135 1 -6.909 -1.96188 19.9514 0.00726867 0.00120609 -0.00157569 3
146 1 -4.81581 -5.62682 19.9627 0.0171261 0.00754186 -0.000943754 3
147 1 -5.61528 -4.42045 19.9497 -0.0467301 -0.0187739 -0.00528762 3
148 1 -4.99629 -3.21434 19.9032 -0.0181123 -0.0183674 -0.00295764 4
149 1 -5.60433 -2.04464 19.9072 -0.029905 -0.0157046 -0.0051233 3
150 1 -5.11613 -0.759446 19.9167 -0.0553742 -0.00104888 -0.00624128 3
163 1 -3.3706 -5.75449 19.9273 -0.0194394 -0.0441532 -0.00543189 3
164 1 -3.7785 -3.79016 20.1422 -0.0240606 -0.00287455 0.036659 3
165 1 -4.03083 -1.17326 20.2395 -0.0355873 -0.0564961 0.0406794 4
174 1 -2.85131 -4.55053 19.8889 -0.044793 -0.0112031 -0.00389352 3
175 1 -3.63996 -2.46431 20.2891 -0.101733 -0.114668 0.0190853 4
186 1 -0.481554 -5.61037 19.9021 -0.0110657 -0.018042 -0.00401033 4
187 1 -1.5944 -4.82714 20.0129 0.018471 -0.0238512 0.0188858 3
188 1 -0.724226 -3.92596 20.1318 -0.0362425 -0.10836 0.00787603 4
189 1 -1.66546 -1.48811 20.521 0.00527404 0.0653194 0.0836014 6
190 1 -0.695661 -0.26382 20.1528 0.0128577 -0.0139339 0.044859 8
203 1 0.910277 -5.61038 19.9173 -0.00269887 -0.0177871 -0.00242988 3
204 1 1.02661 -3.73485 20.2157 0.0438252 -0.106196 0.0143816 4
205 1 0.813408 -0.232584 20.1605 -0.0411263 0.0165724 0.0234157 8
214 1 2.00525 -4.8494 20.1658 0.0521808 -0.0676011 0.0546201 3
215 1 1.10855 -1.37224 20.3884 -0.0885142 0.11009 0.0671712 6
226 1 3.84087 -5.5602 19.9537 0.0157169 -0.0310073 -0.00324845 3
227 1 3.27167 -4.33084 19.9358 0.0287608 -0.0394861 -0.0020285 4
228 1 4.21066 -3.54447 20.3604 0.000840395 -0.0385751 0.0495992 3
229 1 3.54376 -2.58802 20.2029 0.0974589 -0.108828 0.0213292 3
230 1 4.49228 -0.830337 20.2378 0.109157 -0.0242833 0.021853 1
243 1 5.31473 -5.50049 19.9794 -0.00777166 -0.0175571 -0.00066135 3
244 1 5.59371 -3.05133 19.9079 0.0660985 -0.00581411 -0.00615284 3
245 1 5.82193 -0.681713 20.0813 0.0535251 -0.00172391 0.0234108 3
254 1 6.1266 -4.3498 19.9708 0.00111724 -0.0120353 -0.00249741 3
255 1 6.19102 -1.82606 19.9509 0.0310628 -0.0131267 -0.00134811 3
269 1 7.54047 -1.88919 19.979 0.00773858 -0.00243323 -0.00140084 3
267 1 7.55326 -4.29824 19.9959 -0.00525592 0.00767099 -0.000854301 3
216 1 0.988931 -0.608537 20.7221 -0.0412372 -0.0942577 0.114884 6
266 1 8.31923 -5.52377 20.0087 -0.00451862 0.00960105 -4.27402e-05 3
268 1 8.3327 -3.07373 19.9971 0.001056 0.00129589 -0.000548702 3
270 1 8.2781 -0.649224 19.9902 0.0124459 -0.00591416 -0.000451143 3
283 1 9.7647 -5.53633 20.0087 -0.00362555 0.00296996 9.33789e-05 3
284 1 9.76448 -3.09282 20.0051 -0.00234466 -0.00424125 -0.000160332 3
285 1 9.71405 -0.652457 20.0018 0.00606727 0.00586491 -0.000269628 3
294 1 10.4852 -4.32659 20.0056 -0.0025635 -0.00101098 1.05997e-05 3
295 1 10.5128 -1.86439 20.0031 -0.000630746 -0.00247949 -0.000172415 3
96 1 -10.9456 0.613387 20.003 0.00389667 0.00298544 0.000177263 3
97 1 -10.9528 3.03387 20.0029 -0.000869977 0.000120823 0.000127453 3
98 1 -10.9699 5.53263 20.0025 -0.00476911 -0.00741235 6.01808e-05 3
111 1 -9.60193 0.626167 19.9983 0.000491214 -0.00345777 0.000104682 3
112 1 -9.02248 1.91536 19.9962 0.00968769 -0.00300409 -8.54211e-05 3
113 1 -9.61569 3.16202 20.0031 -0.00158677 -0.00103245 0.000169782 3
114 1 -8.93921 4.36514 20.0047 0.00144102 0.00621739 0.000136894 3
115 1 -9.63855 5.55039 20.0073 -0.00486274 0.00307878 0.000206058 3
126 1 -7.59144 1.85104 19.972 0.00957317 0.000400651 -0.000784569 3
127 1 -7.50256 4.34317 19.9925 -0.00289198 -0.00168344 -0.000261555 3
136 1 -6.87253 0.60121 19.9403 0.000960201 0.000460052 -0.00203702 3
137 1 -6.91057 3.08798 19.966 -0.0100889 0.00477669 -0.000484061 3
138 1 -6.77435 5.58803 19.9953 -0.00785402 0.00319894 1.67088e-05 3
151 1 -5.56205 0.608829 19.892 -0.0210122 -0.00699 -0.00250113 3
152 1 -5.31915 1.90207 20.0381 -0.0305918 0.0101635 0.0198184 3
153 1 -5.55426 3.15069 19.9243 -0.0312212 0.021776 -0.00358312 4
154 1 -4.73325 4.32681 19.9331 -0.00953096 0.00463676 -0.00128403 3
155 1 -5.35675 5.55835 19.9709 0.00814128 -0.00703953 -0.0013318 3
166 1 -4.03034 2.46096 20.1433 -0.083179 0.0559878 0.0175186 2
167 1 -3.42932 4.57288 19.8419 -0.0292949 0.0422379 -0.015664 3
176 1 -2.9458 1.01224 20.4569 -0.00919239 0.0753266 0.0372854 3
177 1 -2.88155 3.92892 20.3405 -0.0314751 0.0915512 0.0569458 3
178 1 -2.60094 5.59916 19.9214 0.00565207 0.00672659 -0.00408497 4
191 1 -0.787162 0.337438 19.976 0.0697602 0.0971717 0.0438586 7
192 1 -1.06858 1.4731 20.3738 -0.0288705 -0.103377 0.0512268 6
193 1 -1.61123 3.75889 20.2466 -0.0421732 0.132466 0.0341407 3
194 1 -0.328846 4.85786 20.0324 -3.41589e-05 0.0779599 0.00999821 3
195 1 -1.22739 5.64269 19.9094 -0.00404049 0.010745 -0.00243646 3
206 1 1.35228 1.3817 20.5485 0.0225642 -0.0955977 0.0606277 5
207 1 0.847599 4.70885 20.0499 0.0165611 0.0442851 0.00634916 2
217 1 1.91567 3.17289 20.2747 0.091577 0.049399 0.0353755 2
218 1 1.84152 5.5237 19.9223 -0.00230535 0.0138138 -0.00115954 3
231 1 3.62906 1.33268 20.5269 0.0764968 0.110016 0.0597096 3
232 1 4.46936 2.12343 20.1788 0.0902199 0.0460552 0.0416509 3
233 1 3.97367 3.21044 20.3712 0.0790346 0.00355451 0.0431114 3
234 1 4.06495 4.58458 19.8358 0.0283693 0.0697483 -0.0153918 3
235 1 3.16362 5.48941 19.9507 0.000668921 0.0269955 0.000374058 3
246 1 5.40411 1.76897 19.9188 0.0571383 -0.00706726 -0.00500123 3
247 1 5.3217 4.29106 19.9513 0.029246 0.0147895 -0.00382824 4
256 1 6.10125 0.611307 19.9401 0.0288878 0.0131469 -0.0012174 3
257 1 6.01564 3.02234 19.9502 0.0283772 0.00823113 -0.00476896 3
258 1 6.02601 5.46466 19.9883 -0.00265848 0.0279645 0.000220395 3
271 1 7.47918 0.564734 19.9734 0.00810183 0.000980205 -0.00141637 3
273 1 7.42682 3.04236 19.9841 -0.00423729 -0.00137811 -0.000936253 3
275 1 7.45698 5.47986 20.0028 -0.0106146 -0.00437539 -0.000381828 3
272 1 8.19736 1.80233 19.9905 0.00401621 0.000354399 -0.000657851 3
274 1 8.23601 4.25129 20.0021 -0.0056728 -0.00103999 -0.000388039 3
286 1 9.64582 1.79476 20.003 -0.00326643 0.00949875 -0.000279338 3
287 1 9.69964 4.23979 20.0073 -0.00611635 -0.0017891 -9.42255e-05 3
296 1 10.4324 0.587432 20.0031 0.00156279 0.00290024 -0.000208792 3
297 1 10.4147 3.00831 20.0049 -0.00947789 0.00580741 -7.23823e-05 3
298 1 10.489 5.45511 20.0058 0.000786184 -0.00602793 4.65806e-05 3
99 1 -10.8905 7.97683 20.0016 -0.000337692 0.00285112 1.84983e-05 3
116 1 -8.95417 6.76908 20.009 0.010403 0.003589 0.000234947 3
117 1 -9.53165 8.01731 20.0059 0.00955842 0.00219483 0.000173532 3
118 1 -8.80385 9.20508 20.0041 0.00148656 0.00897902 5.64733e-05 3
128 1 -7.53478 6.80284 20.0082 0.00113418 -0.00538985 7.48555e-05 3
129 1 -7.39873 9.24987 20.0052 0.00638837 -0.00045681 7.45293e-05 3
139 1 -6.79765 8.01213 20.0074 0.00167672 -0.000193464 0.000187962 3
156 1 -4.64819 6.80456 19.9841 0.016558 -0.000764871 -0.000545918 3
157 1 -5.35887 8.01024 20.0028 0.0133883 -0.00451334 -2.02604e-05 3
158 1 -4.54299 9.18591 20.0027 0.000720616 0.00151466 4.93157e-05 3
168 1 -3.24372 6.79773 19.967 0.00677784 -0.00966559 -0.00106628 3
169 1 -3.13174 9.25357 19.9996 -0.00849753 0.00359173 2.32359e-05 3
179 1 -2.48886 8.00484 19.987 -0.000752958 -7.45018e-05 -0.000235002 3
196 1 -0.386385 6.73903 19.9494 -0.00273229 0.00639887 -0.00201541 3
197 1 -1.05109 7.97264 19.9806 0.0021937 -0.00173472 -0.000476078 3
198 1 -0.251468 9.15211 19.9945 0.00447139 -0.00536747 -0.000179602 3
208 1 1.07299 6.70298 19.9523 -0.0107812 0.0106248 -0.00160108 3
209 1 1.13481 9.17119 19.9949 4.89707e-05 0.00629872 -0.000148181 3
219 1 1.82026 7.94831 19.9835 -0.0141087 -0.00328638 -0.000832245 3
236 1 3.88469 6.6718 19.9788 -0.00982922 0.0185251 -0.000905271 3
237 1 3.27516 7.97536 19.9913 -0.0101236 0.0054149 -0.000434783 3
238 1 4.09936 9.15938 20.0006 -0.00568506 0.00477866 -0.000176353 3
248 1 5.34268 6.68806 19.9951 -0.0140186 0.012642 -0.000499826 3
249 1 5.50479 9.15432 20.0038 -0.00551045 0.00467016 -0.000125593 3
259 1 6.12337 7.90849 20.0058 -0.00755135 0.00849748 -0.000100676 3
277 1 7.53499 7.90827 20.0087 -0.00436148 -0.00227376 8.11886e-05 3
276 1 8.2909 6.66662 20.0098 -0.00910507 -0.0048133 4.72092e-05 3
278 1 8.29478 9.12594 20.0049 -1.49594e-06 -0.00822471 0.00012868 3
288 1 9.74233 6.69074 20.0078 -0.00292247 -0.0105435 0.00012688 3
289 1 9.69255 9.14883 20.0031 0.000842667 -0.00442298 8.23068e-05 3
299 1 10.4525 7.93257 20.0038 -0.00111522 -0.00756639 9.97964e-05 3
