ITEM: TIMESTEP
30800
ITEM: NUMBER OF ATOMS
168
ITEM: BOX BOUNDS pp pp pp
-1.4715758017245314e+01 1.5057610017245315e+01
-1.2710055654020760e+01 1.2664508654020761e+01
-5.0001035148846022e+01 1.0000103514884636e+02
ITEM: ATOMS id type x y z vx vy vz c_coord
92 1 -10.9084 -9.27802 20.0006 -0.00669504 -0.00478385 1.22584e-05 3
93 1 -10.9256 -6.78006 20.0025 -0.00792032 0.0011351 -0.000329811 3
103 1 -9.49374 -9.35538 20.0027 -0.0127687 -0.0166284 -0.000249046 3
104 1 -8.90029 -8.22111 20.0123 -0.0192173 -0.0109649 -0.000363628 3
105 1 -9.52592 -6.97877 20.0156 -0.0135769 0.000827939 -0.000342325 3
122 1 -7.48944 -8.35039 20.0217 -0.0095383 0.00210599 0.000791928 3
132 1 -6.65128 -9.395 20.0081 -0.0243512 -0.0117645 -0.000421486 3
133 1 -6.86586 -7.19629 20.1 0.0288467 -0.00794407 0.00962558 3
143 1 -5.34605 -9.57764 20.0149 -0.0234278 -0.0200393 0.00131845 3
144 1 -4.62653 -8.49536 20.0771 -0.00928636 -0.00937125 0.00781798 3
145 1 -5.45665 -7.30656 20.1639 -0.018533 -0.0093709 0.00667134 3
162 1 -3.22138 -8.30196 20.0313 0.0054917 0.0115157 -8.79731e-05 3
172 1 -2.43666 -9.37349 20.0683 0.00107573 0.0280716 0.00657447 3
173 1 -2.71258 -7.23159 19.6575 -0.0043374 0.0125603 -0.0229172 3
183 1 -1.09751 -9.56593 20.0455 0.00516857 0.0235166 0.00406226 3
184 1 -0.313518 -8.4156 19.9565 0.00948675 -0.00386078 -0.00189782 3
185 1 -1.26837 -7.43705 19.5748 -0.000310142 -0.013932 -0.0345078 3
202 1 1.11363 -8.50453 19.8838 0.0132448 0.00143231 -0.00848352 3
212 1 2.0062 -9.4968 20.0653 0.0138489 0.00235575 0.00672034 3
213 1 2.16619 -7.52304 19.4286 0.0371153 0.00572027 -0.0180864 3
223 1 3.35044 -9.44465 20.0422 0.0282682 0.0292233 0.00528971 3
224 1 4.27492 -8.42445 20.0182 0.028258 0.00204783 -0.00359862 3
225 1 3.68501 -7.33456 19.5185 -0.0206396 0.00084335 -0.0261114 3
242 1 5.75284 -8.46715 20.0648 0.0223557 -0.00723556 0.0077934 3
252 1 6.39245 -9.58835 20.0174 0.0108372 -0.00982889 0.00236125 3
253 1 6.50103 -7.26547 19.9811 0.00222383 0.017044 -0.0144373 3
265 1 7.90548 -7.26217 20.0553 0.00828921 -0.00107483 0.00206131 3
263 1 7.69735 -9.49082 20.0044 0.00639337 -0.0192149 -0.000310491 3
264 1 8.60257 -8.43329 20.0211 0.0065834 -0.0216447 0.0017957 3
282 1 9.96991 -8.14751 20.0076 0.0121048 -0.0188148 -9.6307e-05 3
292 1 10.5557 -9.34345 20.0026 0.0103826 -0.00965015 -0.000181732 3
293 1 10.643 -6.97508 20.0102 0.00578049 -0.0201968 0.000362266 3
94 1 -10.9921 -4.34979 20.0075 -0.0245169 -0.00197175 -0.000495508 3
95 1 -11.1249 -1.87839 20.0109 -0.020638 -0.00334592 0.000160666 3
106 1 -8.98457 -5.7626 20.0562 0.00348171 -0.00685352 0.00391244 3
107 1 -9.60035 -4.51819 20.0356 0.000710837 -0.00148473 0.00209724 3
108 1 -9.19077 -3.17265 20.0694 0.0111201 -0.0187604 0.00516567 3
109 1 -9.84637 -1.9006 20.0371 -0.0178354 -0.00324622 0.00242257 3
110 1 -9.19405 -0.612095 20.0459 0.0211637 0.00236001 0.00147243 3
123 1 -7.62477 -5.86234 20.1498 0.0220793 -0.00527655 0.0107879 3
124 1 -7.71781 -3.32493 20.0475 0.0068649 -0.000958193 0.0016132 3
125 1 -7.73903 -0.747165 19.9075 -0.0023478 -0.0121016 -0.0051773 3
134 1 -7.08839 -4.67187 20.0581 0.0307162 -0.00211859 -0.00590664 3
135 1 -7.13289 -2.00754 19.6688 0.0151865 -0.0022043 -0.0345115 3
146 1 -4.87172 -6.03725 19.6113 0.00574505 0.0188201 -0.0400062 3
147 1 -5.81128 -4.87365 19.3175 0.014044 0.0383997 -0.0324988 3
148 1 -5.51323 -3.4441 18.9381 0.00530868 0.0100834 -0.0236297 2
149 1 -5.65207 -2.03297 19.0953 0.00110876 -0.0376653 -0.0238418 3
150 1 -5.12776 -1.20125 20.2138 -0.00883684 -0.0339679 0.0526846 3
163 1 -3.42018 -5.89736 19.3456 0.0344976 0.0167745 0.0131591 3
164 1 -4.12287 -4.24307 21.5386 -0.0670973 0.0284945 0.0372077 2
165 1 -5.61494 -1.99701 21.694 0.000225863 -0.0224583 0.0295461 2
174 1 -3.38669 -4.75639 20.293 -0.00889774 -0.0187132 0.0251826 3
175 1 -5.38842 -3.63126 21.5649 0.0236108 0.0175751 0.0307089 2
186 1 -0.205883 -6.2682 19.5081 0.0364238 0.00105741 0.00589588 3
187 1 -1.8187 -4.28068 20.7407 0.0151945 0.0525327 0.0110043 3
188 1 -0.830763 -5.48744 20.9129 0.00198297 -0.00840774 0.0244115 2
190 1 -1.75651 -2.64931 20.5921 -0.0401064 -0.0624432 0.0604709 2
205 1 -0.790162 -2.66271 19.3365 -0.038303 -0.0682908 -0.0481888 1
203 1 1.38277 -6.22855 19.8347 0.0221304 0.0301693 0.0548513 3
204 1 2.18867 -6.18221 21.3206 0.0107783 -0.0711374 0.0298214 2
226 1 4.35413 -6.06894 19.5561 0.00771356 0.0163639 -0.0100071 3
227 1 3.97139 -5.16067 20.5372 0.018268 -0.0033806 0.0146624 3
229 1 5.14588 -4.15633 20.8089 0.0360906 -0.00162202 0.0177731 2
230 1 5.65317 -1.14576 21.7037 0.0391648 0.00709615 0.0301901 1
243 1 5.85098 -6.1565 19.4669 0.0402586 0.00742791 -0.0157737 3
244 1 6.36233 -3.52602 19.7819 -0.0035135 -0.0156735 0.00992688 3
245 1 6.29742 -0.798695 20.5126 -0.0169477 0.0181739 -0.0229765 3
254 1 6.75121 -4.76442 19.4981 0.0184257 -0.0287304 -0.0283932 3
255 1 6.75371 -2.21801 19.9334 0.0129897 -0.0115528 0.0186866 3
267 1 8.14918 -4.65297 19.9026 0.0046261 -0.00935824 -0.011069 3
269 1 8.29515 -2.04011 19.6856 -0.0265584 -0.00257162 -0.00101144 3
266 1 8.68083 -5.9143 20.0388 0.0183718 -0.0220738 0.00238427 3
268 1 8.91054 -3.31888 19.9541 -0.0135852 0.00511189 -0.0107201 3
270 1 8.91739 -0.845605 19.9506 -0.0448741 -0.00187575 -0.01402 3
283 1 10.0996 -5.73999 20.0331 0.00863256 -0.0116129 0.00300257 3
284 1 10.1872 -3.1518 20.0506 -0.0249382 -0.0254438 0.00405295 3
285 1 10.1926 -0.717616 20.0582 -0.0218783 0.0254667 0.00605958 3
294 1 10.6729 -4.50167 20.0173 -0.0174985 0.00176699 0.00220142 3
295 1 10.617 -2.0091 20.0059 -0.00347503 -0.0139618 9.60931e-05 3
96 1 -11.0727 0.588304 20.0093 -0.0116159 0.000460522 0.00025751 3
97 1 -11.0205 3.09445 20.0111 -0.00796226 0.00218673 0.000435748 3
98 1 -10.9999 5.4676 20.0079 -0.0128636 0.0067078 0.000216237 3
111 1 -9.80161 0.643148 20.0218 -0.0209031 -0.0039534 0.00199732 3
112 1 -9.10694 1.85535 20.0398 0.00128438 0.0132085 0.00201937 3
113 1 -9.68777 3.11863 20.034 -0.0116413 0.0174531 0.00183115 3
114 1 -8.95467 4.41153 20.0328 0.0204134 0.00883252 0.00130163 3
115 1 -9.64701 5.66747 20.0336 -0.0141465 -0.0124699 0.00157423 3
126 1 -7.65899 1.84928 19.9101 0.00540642 -0.00261908 -0.00585691 3
127 1 -7.5461 4.50483 19.9807 0.000151492 -0.0135863 -0.000836081 3
136 1 -7.05901 0.54859 19.7419 -0.00157294 -0.000958562 -0.00354177 3
137 1 -6.98406 3.18168 19.7687 0.0377336 0.00372312 -0.0146742 3
138 1 -6.86138 5.82754 20.1207 0.0234493 -0.015533 0.00860181 3
151 1 -5.64459 0.503408 19.9628 0.0197153 0.0181739 0.0024896 3
152 1 -5.18685 1.8139 20.0991 0.034373 -0.0170711 -0.0163913 3
153 1 -5.56573 3.37695 19.5346 0.00905079 0.00363021 -0.0162459 3
154 1 -4.83634 4.52099 19.2755 0.0158051 -0.00836456 -0.00263005 3
155 1 -5.52226 5.79388 20.0581 0.0436977 0.000619364 -0.0196902 3
166 1 -4.49798 1.61053 21.3748 -0.0176476 -0.0349061 0.00696093 2
167 1 -3.6903 5.27395 18.8521 -0.0156391 0.00354857 -0.0272865 2
176 1 -1.82231 3.72809 21.6332 0.0462215 0.0537765 -0.00105509 2
178 1 -2.55677 5.81946 19.0634 0.0114012 -0.000459881 0.0203419 3
191 1 -2.80475 4.13933 20.387 -0.0541832 0.0860525 0.0543993 1
194 1 -1.06356 4.9117 20.6974 -0.0434975 0.00382264 0.00327276 2
195 1 -1.06765 5.7213 19.4976 0.0163493 -0.00290915 0.00816649 3
207 1 2.31193 4.75996 20.6177 0.0374638 0.0298293 0.0284468 2
217 1 3.76916 4.9531 21.2703 0.0441831 0.00774979 0.0250349 2
218 1 2.09242 6.00963 19.7729 0.0188425 -0.00235603 -0.0198295 3
232 1 6.89907 2.84727 21.4208 0.0329225 0.013246 0.0263415 0
234 1 4.32019 5.17868 19.6888 0.0258923 -0.0131573 0.00449775 3
235 1 3.54438 6.1161 19.1966 0.00824178 0.0146524 -0.025174 3
246 1 6.40221 2.04471 19.6674 0.0184421 -0.00836803 0.0225511 2
247 1 5.67776 4.6073 19.4127 0.0043115 0.0151481 0.0234915 3
256 1 6.96622 0.588227 19.8073 0.00507353 0.006491 0.0170025 3
257 1 6.52398 3.3888 19.5172 -0.0229219 0.0155832 0.00880088 3
258 1 6.40363 5.82478 19.7614 0.0141496 -0.00762101 -0.021776 3
275 1 7.779 5.95952 20.0709 0.00712412 0.0140367 -0.00416311 3
273 1 8.10637 3.3911 19.7993 -0.00562271 -0.00143585 -0.0206517 3
271 1 8.43872 0.67249 19.7969 -0.0293136 -0.00410524 -0.00260074 3
272 1 8.95363 1.96095 19.9089 -0.0407575 0.0189766 -0.00927737 3
274 1 8.75225 4.72288 20.0915 -0.0178234 -0.00701683 0.00231984 3
286 1 10.2076 1.67924 20.0274 -0.0156608 -0.00979253 0.00295289 3
287 1 10.1108 4.37629 20.0044 -0.0342385 -0.00100846 0.00151785 3
296 1 10.592 0.442191 20.0027 -0.0130554 -0.0357931 0.00210813 3
297 1 10.7003 3.1644 20.0154 -0.0227143 -0.0157439 0.00209966 3
298 1 10.7381 5.80115 20.0004 -0.0147883 0.0110784 -0.000191152 3
99 1 -10.9108 7.95592 20.0032 -0.00291081 -0.00681475 5.3647e-05 3
116 1 -9.01448 6.96408 20.0144 0.00788143 0.00884964 -0.000218 3
117 1 -9.58331 8.17816 20.0096 -0.0160253 0.00967547 -0.000178606 3
118 1 -8.82548 9.30671 20.0068 -0.0231991 0.00418283 -2.58968e-05 3
128 1 -7.59856 7.11547 20.0296 -0.00479987 0.000623285 0.00275501 3
129 1 -7.51261 9.48834 20.0034 -0.0278081 0.0258612 -0.000715936 3
139 1 -6.80554 8.36153 20.0084 0.000685263 0.0181894 0.000315502 3
156 1 -4.60938 7.05212 20.1638 0.019672 -0.02783 -0.00378514 3
157 1 -5.43416 8.33447 20.0572 0.00994779 -0.053847 0.00807475 3
158 1 -4.47068 9.35398 19.9968 0.00412235 -0.030687 -0.00096581 3
168 1 -3.27351 7.11662 19.7796 -0.0140597 -0.0038164 -0.0321948 3
169 1 -3.24059 9.34218 20.0368 0.00874139 -0.00448668 0.00436843 3
179 1 -2.59112 8.21781 20.1542 -0.00421756 -0.0378728 0.00724213 3
196 1 -0.292253 6.94501 19.6272 -0.0151454 -0.055443 -0.0134101 3
197 1 -1.0471 8.10858 19.9696 0.0306998 -0.0324155 -0.00736519 3
198 1 -0.306818 9.26011 20.0348 -0.0148388 -0.0399155 0.00386593 3
208 1 1.00744 7.25559 19.7876 0.00254435 -0.00464829 -0.00159834 3
209 1 1.06798 9.48406 19.9934 0.0146545 -0.0291928 -0.00154411 3
219 1 1.89306 8.316 19.9001 0.0165358 0.0106867 -0.00164128 3
236 1 4.22156 7.28088 19.8405 0.0154543 -0.00876418 -0.0210953 3
237 1 3.3244 8.38075 20.0072 0.0121912 -0.0265101 -0.000199209 3
238 1 4.20973 9.53091 20.0246 0.0202953 0.000315593 0.00305225 3
248 1 5.70162 7.09916 20.022 0.00280839 -0.0133895 -0.00467287 3
249 1 5.56011 9.42714 20.0029 0.0128007 -0.0036236 0.000852815 3
259 1 6.33091 8.31387 20.0436 0.015677 0.0004416 0.00379162 3
277 1 7.7371 8.37607 20.01 0.0153005 0.0128038 0.000457312 3
276 1 8.53615 7.10522 20.0473 -0.00140135 -0.00256505 0.00368046 3
278 1 8.47904 9.45899 20.0023 0.0116953 0.0209019 -0.000440794 3
288 1 10.0201 7.01657 20.0072 0.0123679 0.0139941 0.000356957 3
289 1 9.8519 9.33849 20.0045 0.000856505 0.0116009 -7.50742e-05 3
299 1 10.5807 8.16997 20.0031 0.00634538 0.0290769 -0.00030672 3
189 1 -1.05576 -0.90889 22.1434 0.0145881 0.00201559 0.010699 0
214 1 3.09933 -5.38277 22.0168 0.0202854 -0.0212097 -0.00059542 3
228 1 4.53579 -5.56421 22.7108 -0.0211162 -0.0378796 0.0792504 1
216 1 2.30754 -3.03263 27.663 0.0449139 -0.0625204 0.19309 0
206 1 2.08669 -0.0580134 22.5677 -0.0268857 0.0330188 0.0256699 0
192 1 -4.49395 2.64597 22.5191 -0.0601876 0.083377 0.0889051 1
193 1 -0.838614 5.75343 22.5353 0.0172435 0.0490546 0.0596555 1
177 1 -2.05804 6.08854 23.0987 0.0395277 0.0529231 0.0826947 1
215 1 2.78436 1.64976 22.7805 0.10389 0.00629539 0.0907847 0
233 1 4.36781 4.80686 23.1417 0.0410681 0.0123594 0.0584382 1
231 1 5.9291 4.81332 22.8457 0.0344188 0.10493 0.0560689 1
