ITEM: TIMESTEP
31200
ITEM: NUMBER OF ATOMS
168
ITEM: BOX BOUNDS pp pp pp
-1.4715758017245314e+01 1.5057610017245315e+01
-1.2710055654020760e+01 1.2664508654020761e+01
-5.0001035148846022e+01 1.0000103514884636e+02
ITEM: ATOMS id type x y z vx vy vz c_coord
92 1 -10.9138 -9.28142 20.0006 -0.00668967 -0.0036818 9.0035e-06 3
93 1 -10.9315 -6.77964 20.0022 -0.00684416 -0.000109687 -0.000356583 3
103 1 -9.5043 -9.36879 20.0024 -0.013611 -0.016878 -0.000278962 3
104 1 -8.91495 -8.22926 20.012 -0.0173568 -0.00935149 -0.000375744 3
105 1 -9.5373 -6.97835 20.0153 -0.014836 0.000209975 -0.000383496 3
122 1 -7.49759 -8.34839 20.0224 -0.0108699 0.00285403 0.000896572 3
132 1 -6.67108 -9.40474 20.0078 -0.0251234 -0.0125296 -0.000476271 3
133 1 -6.84305 -7.20127 20.1078 0.0279347 -0.00455122 0.00990246 3
143 1 -5.36444 -9.59271 20.016 -0.0225406 -0.0175946 0.00146434 3
144 1 -4.63416 -8.50149 20.0835 -0.00978075 -0.00597123 0.00816395 3
145 1 -5.47038 -7.31328 20.1686 -0.0154762 -0.00727522 0.00503079 3
162 1 -3.21801 -8.29324 20.0314 0.00288246 0.0102835 0.000408607 3
172 1 -2.43526 -9.35139 20.0737 0.00244658 0.0271241 0.00673181 3
173 1 -2.71513 -7.22001 19.6386 -0.0018239 0.0161932 -0.0242624 3
183 1 -1.09317 -9.54599 20.0489 0.0056394 0.0262149 0.00433515 3
184 1 -0.306067 -8.41884 19.9549 0.00912925 -0.00408042 -0.00213876 3
185 1 -1.26725 -7.44619 19.547 0.00339277 -0.00863334 -0.034938 3
202 1 1.12556 -8.50179 19.8763 0.0166858 0.00545503 -0.0101542 3
212 1 2.017 -9.49452 20.0708 0.0131546 0.00336638 0.00698363 3
213 1 2.194 -7.51692 19.4151 0.0318761 0.00979414 -0.0153479 3
223 1 3.37346 -9.42114 20.0465 0.029208 0.0294659 0.0054614 3
224 1 4.29889 -8.42281 20.0154 0.0317097 0.0020421 -0.00339192 3
225 1 3.66651 -7.33482 19.4973 -0.0252931 -0.00124484 -0.0268402 3
242 1 5.76938 -8.47229 20.0711 0.0189828 -0.00559147 0.00778727 3
252 1 6.40103 -9.59518 20.0194 0.0106252 -0.00726799 0.00262279 3
253 1 6.50253 -7.25189 19.9694 0.00161818 0.0167692 -0.0147679 3
265 1 7.91305 -7.2617 20.0569 0.0106737 0.00217665 0.001902 3
263 1 7.70293 -9.50545 20.0041 0.00730111 -0.0169413 -0.000344915 3
264 1 8.60727 -8.44946 20.0226 0.00517741 -0.0186911 0.00199162 3
282 1 9.97902 -8.163 20.0075 0.0106449 -0.0198691 -7.79591e-05 3
292 1 10.5643 -9.35114 20.0024 0.0110812 -0.0095805 -0.000204422 3
293 1 10.6474 -6.99094 20.0105 0.00523678 -0.0194395 0.000399693 3
94 1 -11.0109 -4.35109 20.0071 -0.022486 -0.00125813 -0.000489081 3
95 1 -11.1407 -1.88088 20.011 -0.0187994 -0.00286453 0.000204919 3
106 1 -8.98102 -5.76798 20.0595 0.00541395 -0.00660636 0.00436223 3
107 1 -9.60061 -4.51875 20.0373 -0.00141453 1.04443e-05 0.00213103 3
108 1 -9.18027 -3.18769 20.0736 0.0150372 -0.0186609 0.00525814 3
109 1 -9.85937 -1.90282 20.0391 -0.014541 -0.00233861 0.00256245 3
110 1 -9.17676 -0.611277 20.047 0.0218527 -0.000370288 0.0013081 3
123 1 -7.60701 -5.86788 20.1586 0.022272 -0.00851602 0.0109834 3
124 1 -7.71269 -3.32464 20.0483 0.00602301 0.00161526 0.000468674 3
125 1 -7.74169 -0.756934 19.9033 -0.00416291 -0.0122176 -0.00522238 3
134 1 -7.06297 -4.67232 20.0527 0.0327585 0.00107672 -0.00756905 3
135 1 -7.12075 -2.01074 19.6411 0.0153766 -0.00580301 -0.03469 3
146 1 -4.86755 -6.02243 19.5788 0.00469137 0.0182458 -0.0412743 3
147 1 -5.79985 -4.84346 19.2921 0.014744 0.0373007 -0.0312388 3
148 1 -5.50852 -3.43733 18.919 0.00623593 0.00699603 -0.0238042 2
149 1 -5.65232 -2.0622 19.0762 -0.00123648 -0.0350871 -0.0227836 3
150 1 -5.13484 -1.22711 20.2573 -0.00971934 -0.0312919 0.0552569 2
163 1 -3.39369 -5.88417 19.3575 0.0315078 0.0162589 0.0166248 3
164 1 -4.1756 -4.22078 21.5693 -0.063419 0.0263758 0.0394774 2
165 1 -5.61403 -2.01628 21.7165 0.00196131 -0.0247537 0.0263698 2
174 1 -3.39025 -4.77179 20.3119 -0.000217466 -0.0196839 0.0221993 3
175 1 -5.37201 -3.61405 21.5901 0.0164272 0.0255547 0.032253 2
186 1 -0.176621 -6.26706 19.5151 0.0367353 0.00151789 0.0116074 3
187 1 -1.80618 -4.24018 20.7492 0.0156751 0.0486643 0.0101435 3
188 1 -0.830271 -5.49226 20.9307 -0.000222171 -0.00424105 0.0201103 2
190 1 -1.78666 -2.70082 20.6383 -0.0355377 -0.0657648 0.0554767 2
205 1 -0.822466 -2.71723 19.3002 -0.0421655 -0.0680241 -0.0430317 1
203 1 1.40032 -6.20607 19.8789 0.0216466 0.0256212 0.0555553 3
204 1 2.19742 -6.23811 21.3439 0.0110512 -0.0685736 0.0283301 2
226 1 4.36192 -6.05528 19.5472 0.0117914 0.0177444 -0.011937 3
227 1 3.98694 -5.1609 20.5524 0.0206203 0.00256305 0.0232703 3
229 1 5.17233 -4.15904 20.8226 0.0301764 -0.00509426 0.0163053 2
230 1 5.68504 -1.13954 21.7267 0.0405185 0.00845001 0.0273539 1
243 1 5.88359 -6.1485 19.4546 0.0409298 0.0125902 -0.0151178 3
244 1 6.35639 -3.53685 19.7906 -0.0112358 -0.0115018 0.0118181 3
245 1 6.28442 -0.784849 20.4937 -0.0155524 0.016358 -0.0242199 3
254 1 6.76709 -4.79014 19.4752 0.0211888 -0.0353968 -0.0287861 3
255 1 6.7655 -2.2248 19.9486 0.0162965 -0.00547327 0.0192792 3
267 1 8.15363 -4.66096 19.8933 0.00648265 -0.0105837 -0.0120293 3
269 1 8.27188 -2.04336 19.6852 -0.0315465 -0.00552295 6.43773e-05 3
266 1 8.695 -5.93206 20.0407 0.0169863 -0.0222664 0.00221363 3
268 1 8.89799 -3.3156 19.9452 -0.0177742 0.002897 -0.0115504 3
270 1 8.88118 -0.845383 19.9392 -0.0455056 0.00258594 -0.0144393 3
283 1 10.1052 -5.74932 20.0356 0.00551561 -0.0117131 0.00318092 3
284 1 10.1666 -3.1736 20.0539 -0.0263992 -0.0289409 0.00418005 3
285 1 10.1741 -0.698772 20.0631 -0.0245267 0.0208283 0.00619056 3
294 1 10.6588 -4.49954 20.0191 -0.0177365 0.00347162 0.00238737 3
295 1 10.6152 -2.01904 20.006 -0.00104551 -0.0107733 0.000230083 3
96 1 -11.0817 0.588724 20.0095 -0.0109219 0.000576386 0.000300728 3
97 1 -11.0265 3.09568 20.0114 -0.00703361 0.000877908 0.00047805 3
98 1 -11.0098 5.47369 20.0081 -0.0117165 0.00846757 0.000242093 3
111 1 -9.81742 0.639822 20.0235 -0.0185208 -0.00429149 0.00213166 3
112 1 -9.10478 1.86627 20.0413 0.00408012 0.0140379 0.00166723 3
113 1 -9.69608 3.13299 20.0355 -0.00908823 0.018373 0.00184968 3
114 1 -8.93876 4.41861 20.0338 0.0191869 0.00885842 0.00133571 3
115 1 -9.65746 5.65731 20.0348 -0.0118749 -0.0127906 0.00160489 3
126 1 -7.6554 1.84769 19.9053 0.00357836 -0.00139424 -0.00601485 3
127 1 -7.54658 4.49336 19.98 -0.00112988 -0.0148613 -0.000940086 3
136 1 -7.05961 0.548252 19.7391 0.00011378 0.000122017 -0.00339758 3
137 1 -6.95337 3.18457 19.757 0.0388625 0.00340844 -0.0146306 3
138 1 -6.84352 5.81557 20.1276 0.021179 -0.0143202 0.00861981 3
151 1 -5.62878 0.516919 19.9649 0.0197631 0.0148373 0.00291568 2
152 1 -5.15847 1.80118 20.0869 0.0368187 -0.0144967 -0.0136528 3
153 1 -5.55878 3.37735 19.5221 0.00835911 -0.0026909 -0.0149978 3
154 1 -4.82431 4.51596 19.2738 0.0142784 -0.00429956 -0.00167178 3
155 1 -5.48464 5.79518 20.0417 0.0498961 0.00249928 -0.0211134 3
166 1 -4.51268 1.58491 21.3814 -0.0192936 -0.0292727 0.0090787 2
167 1 -3.70456 5.27429 18.8294 -0.0196299 -0.00193443 -0.0290511 2
176 1 -1.78622 3.77341 21.6287 0.0442636 0.0598005 -0.0101495 2
178 1 -2.54655 5.82198 19.0802 0.0146001 0.00623507 0.0213202 3
191 1 -2.84627 4.20641 20.4336 -0.0495848 0.0818398 0.0617723 1
194 1 -1.0989 4.91339 20.702 -0.0451929 0.00024069 0.0080428 2
195 1 -1.05563 5.71742 19.5039 0.0136262 -0.00676738 0.00802984 3
207 1 2.34307 4.78538 20.6407 0.0404388 0.0336846 0.0290373 2
217 1 3.8032 4.95895 21.2893 0.0409026 0.0068986 0.0221878 2
218 1 2.1071 6.00751 19.7577 0.0178358 -0.00283658 -0.0181738 3
232 1 6.92569 2.85774 21.4427 0.0336123 0.0129708 0.0281826 0
234 1 4.34323 5.16285 19.6945 0.0310842 -0.0259834 0.00965977 3
235 1 3.54915 6.1307 19.1759 0.00405909 0.0217571 -0.0262848 3
246 1 6.41727 2.03295 19.6857 0.0191131 -0.0204297 0.0233305 2
247 1 5.68033 4.62105 19.4316 0.00223831 0.0188866 0.0236746 3
256 1 6.96926 0.594499 19.8217 0.00255474 0.00903357 0.0188481 3
257 1 6.50622 3.40264 19.5233 -0.0212326 0.0185232 0.00679157 3
258 1 6.41419 5.81903 19.7441 0.0123811 -0.00642297 -0.0215754 3
275 1 7.78602 5.96985 20.0676 0.0103049 0.0117523 -0.00431973 3
273 1 8.10281 3.39067 19.7834 -0.0035339 0.000352358 -0.0191116 3
271 1 8.41317 0.668034 19.7949 -0.0344689 -0.00703295 -0.00258892 3
272 1 8.92009 1.97673 19.9013 -0.0429989 0.0204147 -0.0096442 3
274 1 8.73633 4.7156 20.0929 -0.0219413 -0.0111394 0.00116861 3
286 1 10.1948 1.67336 20.0297 -0.0163619 -0.00492163 0.0029359 3
287 1 10.0832 4.37758 20.0057 -0.0345395 0.00415555 0.00174418 3
296 1 10.5829 0.41439 20.0044 -0.00943172 -0.0329848 0.0021931 3
297 1 10.6816 3.15001 20.0172 -0.024011 -0.0202122 0.0022059 3
298 1 10.7244 5.80928 20.0002 -0.0192533 0.00917579 -0.000149586 3
99 1 -10.9135 7.95069 20.0033 -0.00374324 -0.00622313 4.62975e-05 3
116 1 -9.00722 6.97053 20.0142 0.0101872 0.00718433 -0.000148698 3
117 1 -9.59579 8.1855 20.0094 -0.0151474 0.00864272 -0.00019916 3
118 1 -8.84413 9.31005 20.0068 -0.0233861 0.00420042 -3.64424e-05 3
128 1 -7.6021 7.11605 20.0319 -0.00387478 0.000694163 0.00306862 3
129 1 -7.53443 9.5082 20.0028 -0.0266787 0.023712 -0.000766991 3
139 1 -6.80537 8.37463 20.0087 -0.000270227 0.0144798 0.000500254 3
156 1 -4.59515 7.02944 20.16 0.0152128 -0.0288076 -0.00551099 3
157 1 -5.42493 8.29001 20.0639 0.0130111 -0.0570271 0.00858445 3
158 1 -4.46872 9.32909 19.996 0.000747226 -0.0315254 -0.00102777 3
168 1 -3.28454 7.11374 19.7544 -0.0132934 -0.00425658 -0.0314393 3
169 1 -3.23216 9.33872 20.0405 0.0123387 -0.00413747 0.00485516 3
179 1 -2.59269 8.1865 20.1593 0.000594701 -0.0397896 0.00573315 3
196 1 -0.304233 6.90246 19.6166 -0.014698 -0.0508445 -0.0128897 3
197 1 -1.02419 8.08271 19.9637 0.026586 -0.0325723 -0.0072732 3
198 1 -0.318166 9.22819 20.0379 -0.0134051 -0.0397689 0.00391094 3
208 1 1.01197 7.24978 19.7863 0.0085536 -0.00998027 -0.00177829 3
209 1 1.08015 9.45933 19.9921 0.0156659 -0.0324921 -0.00170423 3
219 1 1.90534 8.32486 19.8989 0.0141181 0.0112399 -0.00150011 3
236 1 4.23429 7.27553 19.8235 0.0163438 -0.00464772 -0.02148 3
237 1 3.33585 8.35894 20.0069 0.0166611 -0.0280592 -0.000564154 3
238 1 4.22519 9.5293 20.0271 0.0182628 -0.00444297 0.00317266 3
248 1 5.70191 7.0884 20.0178 -0.00224826 -0.0134648 -0.00592212 3
249 1 5.56997 9.42397 20.0036 0.0118355 -0.00427564 0.000936817 3
259 1 6.34408 8.31392 20.0467 0.0172247 -0.00040853 0.0039117 3
277 1 7.7497 8.38458 20.0104 0.0161472 0.00845011 0.000611617 3
276 1 8.53508 7.10423 20.0502 -0.00117604 0.000171892 0.00364793 3
278 1 8.4885 9.475 20.0019 0.0119347 0.0190691 -0.000452188 3
288 1 10.0288 7.02669 20.0075 0.009319 0.011364 0.000532158 3
289 1 9.85238 9.34753 20.0044 0.000351557 0.0110394 -7.922e-05 3
299 1 10.5858 8.19333 20.0028 0.00651468 0.0292504 -0.000322355 3
189 1 -1.04409 -0.907252 22.152 0.0145934 0.00209357 0.0107667 0
214 1 3.11786 -5.4007 22.0141 0.0260219 -0.0236484 -0.00603611 3
228 1 4.51668 -5.59424 22.7732 -0.0266664 -0.0371861 0.0767872 1
216 1 2.34347 -3.08265 27.8175 0.044914 -0.0625204 0.193089 0
206 1 2.06601 -0.0296966 22.5885 -0.0247697 0.0377702 0.0263353 0
192 1 -4.54207 2.71054 22.5879 -0.0601453 0.0781203 0.0831738 1
193 1 -0.825895 5.79274 22.5831 0.0145628 0.0492212 0.0598029 1
177 1 -2.02537 6.13063 23.1644 0.0421241 0.0523085 0.0815544 1
215 1 2.86665 1.65289 22.8529 0.101795 0.00154641 0.0901072 0
233 1 4.40496 4.81691 23.1865 0.0516195 0.0128582 0.0536013 1
231 1 5.95205 4.89719 22.8915 0.023165 0.104678 0.0584485 1
