ITEM: TIMESTEP
4900
ITEM: NUMBER OF ATOMS
168
ITEM: BOX BOUNDS pp pp pp
-1.4715758017245314e+01 1.5057610017245315e+01
-1.2710055654020760e+01 1.2664508654020761e+01
-5.0001035148846022e+01 1.0000103514884636e+02
ITEM: ATOMS id type x y z vx vy vz c_coord
92 1 -10.9043 -9.27278 20.0005 -0.00521941 -0.00122961 7.68896e-06 3
93 1 -10.9462 -6.76845 20.0015 -0.00228296 -0.0005687 4.09114e-05 3
103 1 -9.48876 -9.29103 20.0019 -0.00167492 -0.00598234 2.91547e-05 3
104 1 -8.92259 -8.05267 20.005 -0.00988767 0.00245437 0.000142451 3
105 1 -9.55096 -6.83468 20.0052 -0.00998673 0.00542355 0.000155514 3
122 1 -7.5605 -8.06472 20.0064 -0.00735314 0.00684933 0.000187286 3
132 1 -6.79123 -9.23703 20.0039 -0.00464508 0.00388351 0.000118304 3
133 1 -6.93021 -6.89379 20.0039 -0.00515503 0.00572346 0.000111972 3
143 1 -5.3872 -9.3643 20.0037 -0.0101514 0.00282411 9.74481e-05 3
144 1 -4.73349 -8.13821 19.9999 -0.00347882 -0.00276067 1.01104e-05 3
145 1 -5.54368 -6.94605 19.997 0.00156959 0.000815984 -0.000148318 3
162 1 -3.28341 -8.14552 19.9941 -0.00329869 -0.0055328 -7.00261e-05 3
172 1 -2.37657 -9.23628 19.9981 0.00162612 0.00581643 -6.31749e-05 3
173 1 -2.60427 -6.91869 19.9733 0.000728043 -0.00198074 -0.000552305 3
183 1 -0.949396 -9.22519 19.9972 -0.00832651 0.00544204 -6.48224e-05 3
184 1 -0.268528 -7.98941 19.9862 -0.00343712 0.00491124 -0.000303726 3
185 1 -1.14176 -6.88823 19.9651 -0.00120073 0.00737582 -0.00079624 3
202 1 1.2069 -7.98326 19.9883 -0.000131087 0.000220648 -0.000421901 3
212 1 2.00798 -9.1887 19.9998 -0.00298256 0.00174289 -0.000168772 3
213 1 1.89927 -6.72038 19.9723 -0.0118241 -0.00241873 -0.000604847 3
223 1 3.42375 -9.15482 20.002 -0.00545135 -0.00227991 -0.000195379 3
224 1 4.08691 -7.82848 20.0006 -0.0034647 -0.00774574 -0.000195561 3
225 1 3.33958 -6.58316 19.9828 -0.0104938 -0.00990202 -0.000445327 3
242 1 5.51286 -7.85935 20.0056 -0.00645249 -0.00243407 -4.36975e-05 3
252 1 6.13922 -9.18608 20.0047 0.000443502 0.00230509 8.58159e-05 3
253 1 6.19512 -6.59876 20.0045 -0.00623532 -0.00252567 -0.000147407 3
263 1 7.53776 -9.25732 20.0042 -0.00378593 -0.000713881 0.000105265 3
264 1 8.31414 -8.07017 20.0068 -0.0111704 0.0034987 0.000190745 3
265 1 7.6132 -6.81084 20.0089 -0.0061809 0.00457049 0.000103818 3
282 1 9.74583 -8.08263 20.0038 -0.0074641 0.00353113 0.000136046 3
292 1 10.5123 -9.24172 20.0009 0.00203323 0.00918851 3.3426e-05 3
293 1 10.4504 -6.8203 20.0039 -0.00632581 0.00213049 0.000112268 3
94 1 -10.9137 -4.34332 20.002 -0.0038244 0.0041168 5.51805e-05 3
95 1 -10.937 -1.8562 20.0013 -0.00350912 0.000588803 7.233e-05 3
106 1 -8.86947 -5.65496 20.006 -0.00355363 -0.00827409 0.000143667 3
107 1 -9.52214 -4.386 20.004 -0.00280488 -0.00556967 0.000119895 3
108 1 -8.96169 -3.12023 19.9997 -0.010815 -0.00337188 3.96294e-05 3
109 1 -9.58907 -1.84392 19.9993 -0.00304434 -0.0017628 4.59265e-05 3
110 1 -8.98516 -0.585043 19.9945 -0.00375318 0.000891671 -8.65045e-05 3
123 1 -7.53282 -5.63765 20.0024 -0.012418 -0.00607485 0.000120336 3
124 1 -7.62661 -3.14562 19.9884 -0.0112106 -0.00734808 -0.000109144 3
125 1 -7.62024 -0.69108 19.9743 -0.00205774 -0.00319687 -0.00056998 3
134 1 -6.93115 -4.38206 19.9891 -0.016294 -0.00290793 -2.87951e-05 3
135 1 -6.9774 -1.93949 19.968 -0.0168357 -0.0101611 -0.000410188 3
146 1 -4.83963 -5.74243 19.9743 0.00273875 0.00445568 -0.000790326 3
147 1 -5.50507 -4.4419 19.9662 -0.00812025 0.000684705 -0.000707971 3
148 1 -4.77886 -3.19863 19.9254 0.00355611 -0.00660866 -0.00155321 3
149 1 -5.59517 -1.96182 19.9304 -0.00446296 0.00134162 -0.00149483 3
150 1 -4.88521 -0.682015 19.8934 0.00651438 0.000159703 -0.00257213 3
163 1 -3.45048 -5.78707 19.9563 -0.00226165 0.000177177 -0.00113241 3
164 1 -3.35592 -3.27182 19.8859 -0.000425743 0.00594382 -0.00233306 3
165 1 -3.45868 -0.693281 19.8431 -0.00617429 -0.00237191 -0.00197193 3
174 1 -2.69677 -4.56779 19.9101 -0.00350495 0.0054944 -0.00212912 3
175 1 -2.73408 -1.95744 19.8373 -0.0048477 0.00612966 -0.00214606 3
186 1 -0.43537 -5.69505 19.93 -0.00486147 0.00630349 -0.00158815 3
187 1 -1.24621 -4.52943 19.8911 -0.00247599 0.00833064 -0.00236186 3
188 1 -0.615994 -3.24692 19.8442 0.0054843 -0.00354841 -0.00182867 3
189 1 -1.28326 -1.95692 19.8197 -0.00670909 -0.0073538 0.00842942 5
190 1 -0.59739 -0.68429 19.8085 -0.0163352 0.00169217 0.0239259 6
203 1 1.01349 -5.59266 19.9352 -0.00458949 0.00268001 -0.00133437 3
204 1 0.809499 -3.1522 19.8513 0.00639102 0.00236048 -0.00125209 3
205 1 0.819697 -0.651305 19.8157 -0.00749752 -7.99611e-05 0.0137343 5
214 1 1.62849 -4.32076 19.903 -0.000280598 0.000527292 -0.00141555 3
215 1 1.52621 -1.88047 19.8401 -0.000306402 0.000781334 0.00833007 4
226 1 4.00024 -5.29601 19.9682 -0.0166262 -0.00706928 -0.000859062 3
227 1 3.07831 -4.18543 19.9259 -0.00730852 -0.00494353 -0.00125315 3
228 1 3.83735 -2.97785 19.9177 -0.0115803 -0.000531172 -0.00166833 3
229 1 2.95538 -1.84866 19.8726 -0.0111056 0.00300155 -0.00213551 3
230 1 3.71322 -0.661031 19.8877 0.00274037 0.00265951 -0.00126463 3
243 1 5.4693 -5.34587 19.9881 -0.0112029 -0.00197971 -0.00060393 3
244 1 5.32167 -3.02666 19.9567 -0.00211252 -0.00718324 -0.00107543 3
245 1 5.19329 -0.629517 19.9345 0.011581 -0.00025906 -0.000913327 3
254 1 6.19111 -4.17164 19.9864 -0.00333424 -0.00687454 -0.000619854 3
255 1 6.00939 -1.82866 19.962 0.00348072 -0.000643891 -0.000912535 3
269 1 7.47204 -1.87679 19.9899 0.00907701 0.000625908 -0.00035153 3
267 1 7.62365 -4.32593 20.0026 -0.00223063 -0.00250707 -0.000225536 3
266 1 8.35896 -5.58076 20.0085 0.00233056 -0.000677131 6.87624e-05 3
268 1 8.2822 -3.0886 20.002 0.00453262 -0.00503825 -0.000216971 3
270 1 8.16602 -0.620338 19.9962 0.00667609 -0.00288313 -0.000318444 3
283 1 9.78253 -5.55537 20.0071 -0.00146816 0.000451742 0.000136221 3
284 1 9.72738 -3.09853 20.0064 0.00397331 0.00216549 -3.55119e-05 3
285 1 9.64113 -0.647233 20.0048 0.00406945 -0.00206738 -0.000150656 3
294 1 10.4924 -4.30489 20.0052 0.00238249 0.00163507 4.88593e-05 3
295 1 10.4512 -1.84741 20.005 0.00349717 0.00172772 -6.0294e-05 3
96 1 -10.9605 0.587775 20.0011 -0.00250212 -0.00473374 8.54817e-05 3
97 1 -10.9431 3.08836 20.0016 -0.00390198 0.00452714 5.26001e-05 3
98 1 -10.8963 5.47337 20.0018 -0.00804686 0.00609779 3.37607e-05 3
111 1 -9.619 0.63922 19.9981 0.00137871 0.00344164 -5.27998e-05 3
112 1 -8.9523 1.86005 19.9962 -0.0114649 0.00427508 -2.70412e-05 3
113 1 -9.5625 3.10074 20.0016 -0.00660093 0.00604989 5.99075e-05 3
114 1 -8.83771 4.30638 20.0028 -0.0052632 0.0045924 8.34341e-05 3
115 1 -9.49861 5.52227 20.005 -0.00613335 0.00235036 0.000130787 3
126 1 -7.5697 1.86201 19.9792 -0.0167372 -0.000593456 -0.000202052 3
127 1 -7.48094 4.31691 19.9943 -0.00526759 0.00595906 -5.91116e-05 3
136 1 -6.9665 0.58919 19.9599 -0.00174335 0.00134476 -0.000924769 3
137 1 -6.83998 3.08064 19.9751 -0.0112102 0.000624683 -0.00039617 3
138 1 -6.85565 5.57792 19.9974 0.000464305 0.00352183 -6.5845e-05 3
151 1 -5.58412 0.595263 19.9182 0.00979148 -0.000285221 -0.00215927 3
152 1 -4.75716 1.81544 19.9023 -0.00352428 0.00413302 -0.00176219 3
153 1 -5.41432 3.09043 19.9427 -0.00159501 0.0010674 -0.00121686 3
154 1 -4.6639 4.36161 19.9477 0.00146855 -0.000357916 -0.00114067 3
155 1 -5.42086 5.56855 19.9823 0.00546015 0.00107131 -0.000546274 3
166 1 -3.36542 1.85371 19.8581 -0.00861432 0.00841668 -0.00177019 3
167 1 -3.27368 4.38471 19.9191 -0.00175927 -0.0034517 -0.00178129 3
176 1 -2.76588 0.560347 19.8298 -0.01574 -0.000741876 0.00961904 5
177 1 -2.64626 3.09613 19.8692 0.00598414 -0.00476995 -0.00231578 3
178 1 -2.60853 5.66021 19.9451 -0.00275981 -0.0015417 -0.0013544 3
191 1 -1.31334 0.567783 19.8036 -0.0122083 -0.00340172 0.00895215 5
192 1 -0.643754 1.85899 19.8134 -0.00806288 0.00185662 0.00155214 4
193 1 -1.22926 3.16232 19.8483 -0.00815861 -0.00189727 -0.00177624 3
194 1 -0.484998 4.42872 19.8886 -0.00572916 -0.00702032 -0.00238309 3
195 1 -1.14464 5.68226 19.9332 -0.0106566 -0.00141832 -0.00142739 3
206 1 0.803858 1.81197 19.8222 -0.000110484 -0.000356656 0.000914089 4
207 1 0.958652 4.30958 19.8941 0.00159633 -0.00699484 -0.00200713 3
216 1 1.56136 0.579221 19.826 0.00119118 -0.00111451 0.010992 5
217 1 1.5495 3.02134 19.8628 -0.00532049 -0.00258268 -0.00127106 3
218 1 1.78155 5.46805 19.9407 -0.00117121 0.000796978 -0.00109209 3
231 1 2.97664 0.560734 19.8626 -0.00876336 0.00161215 9.64516e-05 4
232 1 3.75779 1.75149 19.8966 0.00662352 -0.00157412 -0.00117797 3
233 1 2.96754 2.94678 19.8932 -0.00842936 -0.00224702 -0.00169589 3
234 1 3.85525 4.09162 19.9412 -0.000347134 0.00105511 -0.000989585 3
235 1 3.221 5.35189 19.9573 0.00335765 -0.000519716 -0.000798881 3
246 1 5.23632 1.80577 19.9401 0.0066606 0.002195 -0.00115285 3
247 1 5.33738 4.11319 19.9705 -0.012215 0.00572828 -0.000968911 3
256 1 5.92556 0.599666 19.953 -0.00178867 -0.000684689 -0.00113232 3
257 1 6.03977 2.95396 19.9696 -0.0129763 0.00771264 -0.00113124 3
258 1 6.18911 5.29029 19.9959 -0.0121542 0.00503545 -0.000474592 3
271 1 7.38978 0.622901 19.9846 0.00273833 -0.00223189 -0.000533262 3
273 1 7.49351 3.035 19.9936 -0.00831982 0.00206755 -0.000531428 3
272 1 8.23117 1.8103 19.9979 -0.00854426 0.00205317 -0.000405019 3
274 1 8.33316 4.22159 20.0054 -0.00997888 0.0100895 -8.40483e-05 3
275 1 7.61598 5.44719 20.0061 -0.00652117 0.00496538 -8.06321e-05 3
286 1 9.70365 1.78132 20.0055 -0.00260616 -0.00387884 -5.3894e-05 3
287 1 9.77894 4.24293 20.0072 -0.00426784 -0.00328679 8.9486e-05 3
296 1 10.4354 0.543522 20.0049 0.000230472 -0.00619785 -4.6153e-05 3
297 1 10.4746 2.99126 20.0051 0.004143 -0.00165721 2.02695e-05 3
298 1 10.4675 5.50845 20.0048 -0.00156805 -0.000710169 9.08147e-05 3
99 1 -10.946 7.9384 20.0011 -0.00278949 -0.00310169 3.19126e-05 3
116 1 -8.85057 6.7703 20.0061 -0.0151958 -0.0011814 0.000162545 3
117 1 -9.51363 7.96096 20.0041 -0.00964725 -0.000887477 0.000103077 3
118 1 -8.80445 9.18093 20.0031 0.00223943 -0.00298637 8.48097e-05 3
128 1 -7.49975 6.77385 20.0059 -0.00947401 -0.0023158 0.000180651 3
129 1 -7.38396 9.26204 20.004 -0.00535771 0.00328115 7.35044e-05 3
139 1 -6.81052 8.02125 20.0051 -0.003431 0.00070591 0.000127261 3
156 1 -4.76281 6.84252 19.9905 -0.00060028 0.0011052 -0.000342574 3
157 1 -5.3812 8.09043 20.0026 -0.00380922 -0.00357117 7.45984e-06 3
158 1 -4.50681 9.20768 20.0019 -3.19286e-05 -0.00744434 5.1679e-05 3
168 1 -3.35587 6.8734 19.9797 -0.0015076 -0.000101951 -0.00053679 3
169 1 -3.11522 9.23832 20.0002 -0.000685336 -0.00296083 -7.42779e-05 3
179 1 -2.45775 8.00097 19.9901 -0.000340658 0.00152678 -0.000223297 3
196 1 -0.2837 6.80322 19.963 -0.00434442 -0.00262592 -0.000836709 3
197 1 -0.994989 8.02188 19.9862 -0.00791683 -0.00300343 -0.000324248 3
198 1 -0.196341 9.18778 19.9967 -0.0152908 0.00118946 -0.000132126 3
208 1 1.16326 6.75285 19.967 -0.00445454 -0.00444772 -0.000904752 3
209 1 1.21762 9.18213 19.9972 -0.0104072 0.00131911 -0.000140859 3
219 1 1.96089 7.94947 19.9907 -0.00747725 -0.00263006 -0.000357926 3
236 1 4.05563 6.5235 19.9882 -0.0080654 0.00811439 -0.000406192 3
237 1 3.42402 7.82522 19.9962 0.000335253 0.00512447 -0.000249639 3
238 1 4.09746 9.12016 20.0026 -0.000431736 0.00424486 -0.000108127 3
248 1 5.5077 6.52434 19.9997 -0.0162115 0.00229969 -0.000300886 3
249 1 5.51939 9.07553 20.0047 -0.000316716 0.00838449 -6.62544e-06 3
259 1 6.20454 7.82735 20.0066 -0.00281715 -0.00271433 8.35743e-06 3
276 1 8.34968 6.71848 20.0083 -0.00712306 0.0018356 0.00013299 3
277 1 7.64676 7.96303 20.007 -0.000805238 -0.00741314 0.000154038 3
278 1 8.36711 9.1928 20.0032 -0.010701 -0.00324591 0.00011234 3
288 1 9.78297 6.78382 20.0057 -0.00558086 -0.00409286 0.000161868 3
289 1 9.76709 9.26043 20.0018 -0.00438546 -0.000653068 7.15399e-05 3
299 1 10.5131 8.0324 20.0024 -0.00234548 0.000268716 8.26704e-05 3
