ITEM: TIMESTEP
31500
ITEM: NUMBER OF ATOMS
168
ITEM: BOX BOUNDS pp pp pp
-1.4715758017245314e+01 1.5057610017245315e+01
-1.2710055654020760e+01 1.2664508654020761e+01
-5.0001035148846022e+01 1.0000103514884636e+02
ITEM: ATOMS id type x y z vx vy vz c_coord
92 1 -10.9178 -9.28335 20.0006 -0.00680286 -0.00274045 6.00707e-06 3
93 1 -10.9354 -6.78002 20.002 -0.00607004 -0.00114763 -0.000378308 3
103 1 -9.51264 -9.37894 20.0023 -0.0141729 -0.0169549 -0.000302558 3
104 1 -8.92489 -8.23446 20.0118 -0.0157422 -0.00798125 -0.000377725 3
105 1 -9.54644 -6.97837 20.0151 -0.0156298 -0.00030789 -0.000407701 3
122 1 -7.50444 -8.34653 20.023 -0.011949 0.00334314 0.00100657 3
132 1 -6.6863 -9.41238 20.0075 -0.0255909 -0.0129084 -0.000516351 3
133 1 -6.82672 -7.2033 20.1138 0.026397 -0.00227044 0.0100837 3
143 1 -5.37775 -9.60267 20.0169 -0.0218029 -0.0155939 0.00158352 3
144 1 -4.64014 -8.50432 20.0885 -0.0101611 -0.0033825 0.00841513 3
145 1 -5.47868 -7.31706 20.1712 -0.0120301 -0.00531083 0.00348494 3
162 1 -3.21692 -8.28734 20.0318 0.000723803 0.00941284 0.000821272 3
172 1 -2.43348 -9.33539 20.0777 0.00346372 0.0261885 0.00683532 3
173 1 -2.71545 -7.20971 19.6238 0.00086492 0.0180196 -0.0251059 3
183 1 -1.08971 -9.52976 20.0515 0.00588959 0.027813 0.0045646 3
184 1 -0.300671 -8.42118 19.9535 0.00886527 -0.00364785 -0.00251686 3
185 1 -1.26419 -7.45 19.526 0.00687602 -0.00404514 -0.0349849 3
202 1 1.13642 -8.4976 19.8698 0.0195103 0.00851187 -0.0115365 3
212 1 2.02475 -9.49223 20.0751 0.0127236 0.00429541 0.00715471 3
213 1 2.21158 -7.51004 19.4067 0.0266134 0.0131236 -0.0127834 3
223 1 3.39113 -9.4035 20.0498 0.0296671 0.0292987 0.00559796 3
224 1 4.31869 -8.42155 20.0134 0.0342527 0.00218902 -0.00316146 3
225 1 3.65064 -7.33571 19.481 -0.0273804 -0.00154634 -0.027401 3
242 1 5.78 -8.47525 20.0757 0.0164162 -0.00426473 0.00770499 3
252 1 6.40736 -9.59897 20.021 0.0104874 -0.00533702 0.00282845 3
253 1 6.50344 -7.24201 19.9605 0.00144921 0.0161169 -0.0148376 3
265 1 7.92002 -7.25974 20.058 0.012552 0.00430878 0.0018037 3
263 1 7.70716 -9.51456 20.0039 0.00652605 -0.013059 -0.000365614 3
264 1 8.61008 -8.45994 20.0238 0.00422327 -0.0162297 0.00213764 3
282 1 9.98505 -8.17513 20.0075 0.00941036 -0.0205649 -5.98849e-05 3
292 1 10.5711 -9.35688 20.0023 0.0114478 -0.00954486 -0.000222331 3
293 1 10.6504 -7.00241 20.0108 0.00478781 -0.0187665 0.00043312 3
94 1 -11.0239 -4.35166 20.0068 -0.0205871 -0.000663321 -0.000475493 3
95 1 -11.1515 -1.88248 20.0112 -0.0172065 -0.00247355 0.000243813 3
106 1 -8.97733 -5.77189 20.0622 0.00690559 -0.00640788 0.00470895 3
107 1 -9.60198 -4.51848 20.0386 -0.00318249 0.000816492 0.00215405 3
108 1 -9.17046 -3.19869 20.0767 0.0176129 -0.017902 0.00531648 3
109 1 -9.86724 -1.90406 20.0407 -0.0116319 -0.00181457 0.0026777 3
110 1 -9.1637 -0.612158 20.0477 0.0215455 -0.00258074 0.00121696 3
123 1 -7.59365 -5.87365 20.1652 0.0222322 -0.0106685 0.011094 3
124 1 -7.70918 -3.32317 20.0483 0.00575185 0.0032409 -0.000473753 3
125 1 -7.74445 -0.764193 19.9002 -0.00490391 -0.0119167 -0.00534989 3
134 1 -7.04295 -4.67088 20.0478 0.0339053 0.00375966 -0.00875841 3
135 1 -7.11134 -2.01504 19.6202 0.016 -0.0085145 -0.0347537 3
146 1 -4.86498 -6.01159 19.5538 0.00383344 0.0178973 -0.0417883 3
147 1 -5.79063 -4.82089 19.2735 0.0160022 0.0378133 -0.0308404 3
148 1 -5.5048 -3.43368 18.9049 0.00617965 0.00518841 -0.0229967 2
149 1 -5.6533 -2.08286 19.0634 -0.00203425 -0.0336787 -0.0197652 3
150 1 -5.14137 -1.24566 20.2906 -0.0120858 -0.0305407 0.0555297 2
163 1 -3.37562 -5.87445 19.3681 0.0286762 0.0162063 0.0185317 3
164 1 -4.21135 -4.20639 21.5932 -0.0557185 0.02154 0.0400209 2
165 1 -5.61265 -2.03049 21.7314 0.00263988 -0.0226619 0.0230847 2
174 1 -3.38859 -4.78364 20.3249 0.00583708 -0.0196673 0.0213066 3
175 1 -5.36484 -3.59705 21.6097 0.00753629 0.0312144 0.0332939 2
186 1 -0.154484 -6.26623 19.5234 0.0370714 0.00119958 0.0163227 3
187 1 -1.79706 -4.21226 20.755 0.0146092 0.0445372 0.00928368 3
188 1 -0.830519 -5.4943 20.9418 -0.000644227 -0.00247536 0.0169187 2
190 1 -1.8072 -2.74025 20.6707 -0.0330381 -0.0659022 0.0526825 2
205 1 -0.848385 -2.75802 19.2752 -0.044168 -0.0679579 -0.0401872 1
203 1 1.41308 -6.19197 19.9123 0.0208314 0.0213495 0.0556422 3
204 1 2.20406 -6.27864 21.3605 0.0110266 -0.0664839 0.0269821 2
226 1 4.36993 -6.04444 19.5398 0.0148985 0.0183302 -0.0125369 3
227 1 3.99988 -5.1583 20.568 0.0225589 0.00595544 0.0284015 3
229 1 5.18927 -4.1628 20.832 0.0263899 -0.00736538 0.0151112 2
230 1 5.70965 -1.13416 21.7424 0.0415245 0.00949835 0.0249831 1
243 1 5.9079 -6.13978 19.4456 0.0398404 0.0164917 -0.0147915 3
244 1 6.34813 -3.543 19.7981 -0.0161098 -0.00916231 0.0133401 3
245 1 6.2754 -0.775522 20.4791 -0.0145544 0.0147006 -0.0245476 3
254 1 6.78026 -4.81267 19.4578 0.0225661 -0.0395269 -0.0290838 3
255 1 6.7759 -2.22679 19.9603 0.0183901 -0.00121545 0.0195462 3
267 1 8.15782 -4.66743 19.8859 0.00736818 -0.0108053 -0.012617 3
269 1 8.25195 -2.04731 19.6855 -0.0347478 -0.00765468 0.000979683 3
266 1 8.70485 -5.94546 20.042 0.0158656 -0.022424 0.00210033 3
268 1 8.88639 -3.31438 19.9381 -0.0209205 0.00132164 -0.0121746 3
270 1 8.85385 -0.842769 19.9305 -0.0456137 0.00602341 -0.0147298 3
283 1 10.1079 -5.75638 20.0376 0.00342433 -0.0118505 0.00331523 3
284 1 10.1504 -3.19164 20.0564 -0.0275538 -0.0311167 0.00426015 3
285 1 10.1583 -0.688866 20.0669 -0.0287854 0.0109028 0.00655869 3
294 1 10.6482 -4.49716 20.0206 -0.0176835 0.004378 0.00251165 3
295 1 10.615 -2.02468 20.0062 0.000484612 -0.00796594 0.000359229 3
96 1 -11.0881 0.589083 20.0097 -0.0103457 0.000611729 0.000337171 3
97 1 -11.0305 3.09592 20.0117 -0.00630387 -6.59921e-05 0.000512522 3
98 1 -11.0165 5.47911 20.0083 -0.0107287 0.00954781 0.000263981 3
111 1 -9.82789 0.637244 20.0248 -0.016294 -0.00425749 0.00224172 3
112 1 -9.10176 1.87482 20.0422 0.00594022 0.0144093 0.00137404 3
113 1 -9.70091 3.14415 20.0366 -0.00699971 0.0187937 0.00185479 3
114 1 -8.92771 4.42391 20.0346 0.0175772 0.0087839 0.00137694 3
115 1 -9.664 5.64968 20.0358 -0.00989027 -0.0125942 0.00163405 3
126 1 -7.65363 1.84707 19.9017 0.00235155 -0.000746 -0.00615886 3
127 1 -7.54731 4.4844 19.9794 -0.00115887 -0.0148641 -0.000935435 3
136 1 -7.05912 0.548567 19.7372 0.00155836 0.000914723 -0.00317754 3
137 1 -6.92993 3.18646 19.7482 0.0391909 0.0028577 -0.0145201 3
138 1 -6.83134 5.80732 20.1328 0.0194401 -0.0131522 0.00843687 3
151 1 -5.6171 0.524408 19.9668 0.0189757 0.0099149 0.00320391 2
152 1 -5.13576 1.79333 20.0794 0.038889 -0.0115557 -0.0112924 3
153 1 -5.55388 3.37431 19.5133 0.00798378 -0.00743524 -0.014138 3
154 1 -4.81607 4.51418 19.273 0.0132111 -0.00169976 -0.00128074 3
155 1 -5.45385 5.79692 20.0288 0.0524113 0.00316617 -0.0217933 3
166 1 -4.52455 1.56838 21.3871 -0.0201996 -0.0259455 0.00983976 2
167 1 -3.71685 5.27248 18.8119 -0.021087 -0.00397486 -0.0293154 2
176 1 -1.75989 3.81083 21.6206 0.0435332 0.0648995 -0.0168206 2
178 1 -2.5367 5.82676 19.093 0.018239 0.00955208 0.0214391 3
191 1 -2.87499 4.25476 20.4721 -0.046177 0.079432 0.0662907 1
194 1 -1.12663 4.91265 20.7077 -0.0472572 -0.00267298 0.0108468 2
195 1 -1.04809 5.71266 19.5091 0.011493 -0.0090599 0.00908065 3
207 1 2.36808 4.80644 20.6583 0.042976 0.036524 0.0293795 2
217 1 3.82697 4.96293 21.3018 0.0383134 0.00637833 0.0195158 2
218 1 2.11758 6.00579 19.7472 0.0170935 -0.0028706 -0.0168849 3
232 1 6.94599 2.86551 21.4599 0.034035 0.0129312 0.0289516 0
234 1 4.36218 5.14552 19.7014 0.031448 -0.0308992 0.0136492 3
235 1 3.55084 6.14475 19.16 0.00157308 0.0244776 -0.0266315 3
246 1 6.42879 2.01869 19.6999 0.0192445 -0.0266766 0.0236993 2
247 1 5.68143 4.63284 19.4457 0.00158771 0.0201786 0.0231477 3
256 1 6.97022 0.600307 19.8334 0.000603008 0.0102119 0.0200267 3
257 1 6.49416 3.41385 19.5272 -0.0187708 0.0184847 0.00618051 3
258 1 6.42141 5.81581 19.7313 0.0118156 -0.00409023 -0.0209776 3
275 1 7.79278 5.97635 20.0649 0.0121397 0.00987481 -0.00454791 3
273 1 8.10086 3.39124 19.7723 -0.00313271 0.00148482 -0.0180672 3
271 1 8.39149 0.663139 19.7933 -0.0376536 -0.00929709 -0.00255499 3
272 1 8.89389 1.98925 19.8955 -0.0442477 0.021313 -0.00990137 3
274 1 8.72227 4.70804 20.0933 -0.024903 -0.0140405 0.000310016 3
286 1 10.1848 1.67152 20.0315 -0.0171122 -0.00117573 0.00290683 3
287 1 10.0625 4.38116 20.0068 -0.0343684 0.00772897 0.00191643 3
296 1 10.5785 0.396692 20.0057 -0.0046029 -0.0247611 0.00186753 3
297 1 10.667 3.13691 20.0185 -0.0248635 -0.0234306 0.00227609 3
298 1 10.712 5.8143 20.0002 -0.0219426 0.00752404 -0.000111309 3
99 1 -10.916 7.94712 20.0033 -0.004438 -0.00567322 4.01184e-05 3
116 1 -9.00069 6.97438 20.0142 0.0114832 0.00562846 -8.69786e-05 3
117 1 -9.60466 8.19043 20.0093 -0.0144105 0.00776124 -0.000215396 3
118 1 -8.85817 9.31261 20.0068 -0.023377 0.0043304 -4.58061e-05 3
128 1 -7.60402 7.11634 20.0339 -0.00239118 0.000203282 0.00333083 3
129 1 -7.55013 9.52187 20.0024 -0.0256269 0.0218106 -0.000801295 3
139 1 -6.80574 8.38241 20.0091 -0.000972805 0.0114028 0.000672717 3
156 1 -4.58752 7.01203 20.1566 0.0101652 -0.0291646 -0.00578815 3
157 1 -5.41658 8.25537 20.0691 0.0147113 -0.0582803 0.00888983 3
158 1 -4.46906 9.31001 19.9954 -0.0019033 -0.0320858 -0.00106422 3
168 1 -3.29209 7.11049 19.7353 -0.0117088 -0.00661348 -0.0322872 3
169 1 -3.22394 9.33629 20.0435 0.0150565 -0.0040077 0.00531233 3
179 1 -2.59101 8.16268 20.1625 0.00503747 -0.0395019 0.00489169 3
196 1 -0.312913 6.87294 19.6091 -0.0141724 -0.0475881 -0.0122538 3
197 1 -1.00917 8.06283 19.9594 0.0233817 -0.0337326 -0.00735204 3
198 1 -0.32576 9.20449 20.0403 -0.0118408 -0.039153 0.00390519 3
208 1 1.01819 7.24249 19.7851 0.0121406 -0.0143207 -0.00208098 3
209 1 1.08966 9.43923 19.9911 0.0159809 -0.0344218 -0.00178327 3
219 1 1.91324 8.33152 19.898 0.0122451 0.0108529 -0.00149109 3
236 1 4.24433 7.27301 19.8105 0.0171578 -0.00427777 -0.0217608 3
237 1 3.34674 8.3421 20.0065 0.01939 -0.0276771 -0.000649192 3
238 1 4.23561 9.52554 20.0291 0.0164154 -0.00806881 0.00328369 3
248 1 5.69978 7.08029 20.014 -0.0043694 -0.0136227 -0.00679197 3
249 1 5.57686 9.42127 20.0042 0.0111546 -0.00473159 0.000995608 3
259 1 6.35475 8.31341 20.049 0.0183276 -0.00133784 0.00398915 3
277 1 7.75953 8.38867 20.0108 0.0166152 0.00518508 0.000733398 3
276 1 8.5345 7.10501 20.0524 -0.000719653 0.00242054 0.00361273 3
278 1 8.49569 9.48599 20.0016 0.0120149 0.0175414 -0.000459641 3
288 1 10.0337 7.03297 20.0079 0.00682278 0.00958423 0.000684595 3
289 1 9.85249 9.35405 20.0044 4.04787e-05 0.0107064 -8.23099e-05 3
299 1 10.5898 8.21084 20.0026 0.00659969 0.0290678 -0.000333336 3
189 1 -1.03533 -0.905971 22.1585 0.0146074 0.00217492 0.0108338 0
214 1 3.13473 -5.41547 22.0094 0.0301826 -0.0255999 -0.00971977 3
228 1 4.49943 -5.61639 22.8187 -0.030807 -0.0366573 0.0748299 1
216 1 2.37042 -3.12016 27.9334 0.0449141 -0.0625204 0.193088 0
206 1 2.05167 -0.00597238 22.6045 -0.0229847 0.0413034 0.0269318 0
192 1 -4.57816 2.75646 22.6367 -0.0601462 0.0750641 0.0797242 1
193 1 -0.817747 5.82232 22.619 0.0126104 0.0493864 0.0600028 1
177 1 -1.99953 6.16188 23.2131 0.0439904 0.0518483 0.08069 1
215 1 2.92721 1.65276 22.9068 0.100027 -0.00198456 0.0895014 0
233 1 4.43798 4.82481 23.2177 0.0581599 0.0134819 0.0503299 1
231 1 5.96375 4.95987 22.9271 0.0161257 0.104225 0.0599571 1
