ITEM: TIMESTEP
45000
ITEM: NUMBER OF ATOMS
168
ITEM: BOX BOUNDS pp pp pp
-1.4715758017245314e+01 1.5057610017245315e+01
-1.2710055654020760e+01 1.2664508654020761e+01
-5.0001035148846022e+01 1.0000103514884636e+02
ITEM: ATOMS id type x y z vx vy vz c_coord
92 1 -10.8763 -9.2562 19.9943 0.0197768 0.00614137 -0.000704235 3
93 1 -10.7988 -6.77331 19.9811 0.0136234 -0.00167477 -0.000206364 3
103 1 -9.47244 -9.28951 19.9769 0.0183573 0.00461493 -0.00134222 3
104 1 -8.86781 -7.99654 20.0425 0.034732 0.0222904 0.00477227 3
105 1 -9.47383 -6.78307 20.0706 0.000890213 0.0107343 0.00365718 3
122 1 -7.48587 -7.95766 20.1718 0.023108 0.00792692 0.0063509 3
132 1 -6.6536 -9.11108 20.0005 0.0308462 0.00864921 0.00653382 3
133 1 -6.73524 -6.6645 20.259 -0.00839209 0.0238239 -0.0026236 3
143 1 -5.17193 -9.08534 20.1644 0.023737 0.0226066 0.0017702 3
144 1 -4.43272 -7.70527 20.1121 0.0226108 0.0330179 -0.0181408 3
145 1 -5.38193 -6.73671 19.6975 0.0183922 0.0159049 -0.0231084 3
162 1 -2.90241 -7.9364 19.7995 0.0270809 0.00633405 -0.0155805 3
172 1 -2.23637 -9.11885 20.2075 0.0266848 -0.0131565 0.0019029 3
173 1 -2.1514 -6.72112 19.3601 0.0183425 0.0158498 0.0111749 3
183 1 -0.848006 -9.13561 20.1151 0.0222608 0.0216984 -0.0251143 3
184 1 0.0706546 -8.03644 19.3257 0.00440725 0.0272217 -0.0231168 3
185 1 -0.510688 -6.61846 19.2674 0.0286124 -0.0037025 0.0261549 3
202 1 1.69006 -7.96763 19.3065 0.00265237 0.0159457 -0.0198395 3
212 1 2.09913 -9.18426 20.01 -0.0188417 0.00212606 -0.0216263 3
213 1 2.40452 -6.64959 19.5779 -0.00981379 0.0105025 0.0205359 3
223 1 3.55422 -9.01734 20.1936 -0.0163962 0.0177851 -0.00939589 3
224 1 4.32651 -7.90793 19.6706 -0.0229708 0.00819449 -0.00479076 3
225 1 3.68546 -6.58208 19.2504 0.0322897 0.0356911 0.00624817 3
242 1 5.73148 -7.82504 20.0601 -0.0260328 0.0106434 -0.0154076 3
252 1 6.33125 -9.20665 20.1863 -0.00642814 0.0156941 0.00144837 3
253 1 6.71281 -6.78737 19.4955 -0.0062563 0.0205213 -0.0190532 3
203 1 1.83146 -6.39481 20.9631 0.0244238 -0.0110842 0.0372177 3
265 1 8.03301 -6.92852 20.038 -0.0111156 0.0154819 -0.00568903 3
263 1 7.72491 -9.25686 20.0277 -0.0283886 0.00418826 0.00710103 3
264 1 8.58116 -8.15916 20.1621 -0.00888647 0.00619566 0.00797309 3
282 1 9.90027 -8.21357 20.0524 -0.00480983 0.0208027 0.00418497 3
292 1 10.4997 -9.36656 19.9777 -0.00610313 0.0144047 -0.00187306 3
293 1 10.6166 -7.07765 20.072 0.0120944 0.0223268 0.00464594 3
94 1 -10.7697 -4.3419 20.0216 -0.00581293 0.00399536 0.00281833 3
95 1 -10.7023 -1.91752 20.0671 -0.0135133 -0.000535538 0.00189758 3
106 1 -8.68149 -5.70344 20.26 0.0135225 0.00577768 0.00932632 3
107 1 -9.31599 -4.49645 20.2099 0.000326812 0.00867175 0.00803834 3
108 1 -8.57959 -3.34295 20.1817 0.0294226 0.0157656 0.00336828 3
109 1 -9.25336 -2.0373 20.1576 0.0199231 -0.0011576 0.00450187 3
110 1 -8.65763 -0.76211 19.9662 0.0326299 -0.00109087 -0.00560606 3
123 1 -7.3716 -5.55144 20.2623 0.00786606 0.032729 -0.00501033 3
124 1 -7.38799 -3.29276 19.6678 0.0201741 -0.00978341 -0.0255453 3
125 1 -7.37561 -0.663956 19.473 0.0330929 0.00243781 -0.0211937 3
134 1 -6.59054 -4.50802 19.6607 -0.00430414 0.00788346 -0.0196398 3
135 1 -7.03414 -2.07254 19.1526 -0.00504588 0.0158482 -0.0133654 3
146 1 -4.4881 -5.68938 18.8748 0.0152435 0.00493132 0.00380551 3
147 1 -5.45767 -4.60019 18.8185 0.0189451 0.0327942 -0.00752747 3
148 1 -4.82232 -3.09379 18.5438 0.0176012 0.0148273 0.015856 2
149 1 -5.59352 -2.10111 19.3562 0.00909052 -0.00951831 -0.00616794 3
150 1 -5.66952 -1.26701 20.666 0.0237537 -0.0389241 0.0571168 3
163 1 -3.22714 -5.93282 19.6491 -0.0164593 -0.00834106 -0.0284496 3
164 1 -4.43737 -4.54565 21.7765 -0.00991477 0.00145677 0.0149692 1
165 1 -5.50148 -2.0033 21.9007 0.0134737 -0.004906 -0.0188777 2
174 1 -3.27388 -4.65945 21.7274 0.00816473 0.0268485 0.0449489 3
187 1 -2.02378 -4.447 20.5341 -0.0045746 0.0454045 0.018053 3
188 1 -0.593444 -5.11029 20.9636 0.0300068 0.0131967 0.0137549 2
190 1 -2.44128 -3.1051 21.7025 -0.0261537 -0.0365166 0.0333122 1
205 1 -2.3615 -4.79859 19.0908 -0.0680522 -0.0745969 -0.00149623 2
186 1 0.375085 -6.21722 20.7756 -0.000644872 0.013336 0.0287858 3
226 1 4.83629 -5.71232 19.694 0.000460999 0.00395636 3.68221e-05 3
227 1 4.79581 -5.711 21.2246 0.00864626 -0.052521 0.0380032 3
229 1 5.21625 -4.26773 21.0189 -0.0109908 -0.00829378 0.0353693 2
230 1 6.7437 -0.581076 21.7597 0.0218713 0.0101414 0.00651139 1
243 1 6.09087 -5.7526 19.0943 0.00405858 0.0161589 -0.0156673 3
244 1 6.30894 -3.78838 20.2527 -0.00888855 -0.00510471 0.0189458 3
245 1 5.86316 -1.05513 20.7894 -0.00648088 0.0029718 0.0351468 3
254 1 6.58674 -4.72 19.1889 -0.00486817 0.0014213 -0.00430157 3
255 1 6.16554 -2.26836 20.1331 -0.0275887 0.0348781 -0.0102736 3
269 1 7.51292 -2.09407 19.7446 -0.0187348 -0.0105926 -0.00632854 3
267 1 7.79893 -4.73118 19.2648 -0.046932 0.0313779 -0.0339138 3
266 1 8.62082 -5.84166 20.0475 -0.0177651 0.0266197 -0.00530067 3
268 1 8.3329 -3.43199 19.5385 0.0144167 0.0172916 -0.00677927 3
270 1 8.18952 -0.719838 19.639 -0.00912296 0.0151036 -0.00231665 3
283 1 10.0011 -5.87927 20.2137 0.00395049 0.0168912 0.00986595 3
284 1 9.72979 -3.3409 20.0494 0.00817316 -0.00294038 -0.00803241 3
285 1 9.66415 -0.612886 19.9367 -0.0118791 -0.00650794 -0.0149201 3
294 1 10.571 -4.60799 20.1322 -0.00179626 0.0281291 0.00306237 3
295 1 10.4196 -1.95305 20.142 0.0266885 0.0336927 -0.00124036 3
96 1 -10.7015 0.585669 20.0642 -0.00467329 -0.00335329 0.0023292 3
97 1 -10.7401 3.08668 20.0504 0.00860252 -0.0137111 0.00128223 3
98 1 -10.7414 5.51179 20.0295 0.00531683 0.0116372 0.000659393 3
111 1 -9.26718 0.616095 20.1319 0.0111682 0.0107024 0.00300906 3
112 1 -8.56635 1.90707 19.9426 0.0343246 -0.00770277 -0.00621505 3
113 1 -9.2268 3.11267 20.0628 0.0156149 -0.0115685 -0.00120222 3
114 1 -8.55233 4.43196 20.0529 -0.0018534 -0.0262412 0.000723911 3
115 1 -9.26031 5.56659 20.0756 0.0143626 -0.0158183 0.000666678 3
127 1 -7.28294 4.18459 19.8679 0.0222613 -0.0128782 -0.00891339 3
126 1 -7.15814 1.8457 19.6846 0.0234082 -0.00623078 -0.00402905 3
136 1 -6.75411 0.587361 19.8316 0.00540904 0.00371939 -0.007123 3
137 1 -6.40667 3.04075 19.6454 0.0443332 -0.010585 -0.000680984 3
138 1 -6.53501 5.38373 19.9772 0.0200138 -0.0523307 -0.0167194 3
151 1 -5.64221 0.0308111 20.6076 -0.0323738 -0.0108031 0.0152258 3
152 1 -4.31934 1.85845 19.9585 0.00435584 0.0260987 0.00260765 2
153 1 -5.04073 2.95644 19.527 -0.00616285 -0.0269259 0.0232534 3
154 1 -4.45632 4.20594 19.0082 0.0113424 -0.0111597 -0.0146617 3
155 1 -5.16874 5.38043 19.6771 0.0144106 -0.0121693 -0.0171598 3
166 1 -5.23211 1.11882 21.2525 -0.000632266 -0.0051555 -0.0216573 2
167 1 -3.17434 4.45655 18.3389 0.0211196 -0.0408786 -0.00114087 2
176 1 -1.5101 5.01124 21.9661 -0.0181402 0.0359248 0.0636794 2
178 1 -2.55031 5.65054 18.3781 0.00671583 -0.0157735 -0.0493379 3
194 1 -2.43562 5.29246 20.7337 -0.037111 0.0315206 -0.0179951 2
195 1 -1.45461 5.57179 19.3764 -0.0365454 0.000713774 0.00432312 3
207 1 3.19044 5.97587 21.8377 0.0312048 0.0369737 0.0360684 1
217 1 4.14987 5.06766 21.358 -0.00610787 0.00158301 -0.0137904 2
218 1 2.61988 5.51184 19.5404 0.0162554 -0.0233064 0.00505454 2
234 1 4.69645 4.63444 19.8051 0.0126306 -0.0184775 0.0173071 3
235 1 3.99601 5.59043 19.0326 0.00540773 -0.0320871 0.00208964 3
246 1 5.57211 1.96844 20.3061 -0.0560882 0.0234293 0.0222917 2
247 1 6.17449 4.51625 19.7618 -0.0024745 -0.0312925 0.00728447 3
256 1 6.03258 0.560527 20.2324 -0.0338703 -0.0282664 -0.00804333 3
257 1 6.34068 3.22536 19.8581 -0.0137365 -0.00732821 0.00793269 3
258 1 6.65916 5.79161 19.4588 0.00299845 -0.0106654 -0.00572325 3
271 1 7.44748 0.507956 19.6621 -0.0332169 -0.024241 -0.00436417 3
275 1 7.9289 5.77788 19.7472 -0.0138193 -0.0245772 -0.0172368 3
273 1 7.64783 3.13655 19.4301 -0.0226708 -0.0315275 -0.00476975 3
272 1 8.30626 1.85973 19.4919 -0.0215605 -0.00736938 -0.0120904 3
274 1 8.40975 4.38513 19.8731 0.0297635 -0.00679804 -0.0127611 3
286 1 9.87464 1.91373 19.9853 0.00168195 0.0101176 -0.00954488 3
287 1 9.79401 4.37751 20.1338 0.0182464 0.0133562 0.00176582 3
296 1 10.2752 0.706995 20.1297 0.0394217 0.00676914 0.00293571 3
297 1 10.5192 3.20086 20.0627 0.00882849 -0.0162579 -6.37607e-05 3
298 1 10.6411 5.58277 20.0697 0.00926428 -0.0223964 0.0067951 3
99 1 -10.7585 7.91227 20.0015 0.00896821 -0.0122947 -0.000280405 3
116 1 -8.61857 6.7861 20.0715 -0.00397468 -0.0313042 0.00214753 3
117 1 -9.3397 7.93398 20.0044 0.0220398 0.00364322 0.000269875 3
118 1 -8.51636 9.00297 19.9874 0.010975 0.00976309 -0.00140215 3
128 1 -7.38127 6.54529 20.2182 0.0214232 -0.0221765 0.0105029 3
129 1 -7.13387 8.92299 20.0191 0.030458 -0.00984154 0.0048558 3
139 1 -6.50708 7.68319 20.162 0.0243645 0.00485042 0.00690832 3
156 1 -4.58958 6.66596 19.8218 -0.0182127 -0.00739284 -0.0168708 3
157 1 -5.06621 7.87707 20.1983 0.0250997 0.009317 0.00112264 3
158 1 -4.37067 9.15937 20.2182 -0.0226885 0.00929076 0.0133391 3
168 1 -3.16044 6.88082 19.4226 0.0164796 -0.028147 -0.0125231 3
169 1 -2.93839 9.09169 20.1287 0.0340375 0.0304956 -0.00584038 3
179 1 -2.26416 7.83548 19.9417 0.00493043 0.0111426 -0.0105375 3
196 1 -0.26195 6.33808 19.6364 0.0021825 0.00168614 0.00606144 3
197 1 -0.697244 7.80597 19.8682 -0.00301267 0.00220114 -0.00277588 3
198 1 -0.0647412 9.06696 19.9382 0.030395 0.0169538 -0.00649146 3
208 1 1.52411 6.37914 19.5901 0.0228534 -0.0585489 -0.0128933 3
209 1 1.36464 9.1068 19.9959 0.0303292 0.00733257 -0.00208898 3
219 1 1.98599 7.74356 19.8678 -0.0136055 0.00385812 0.00110742 3
236 1 4.58848 7.01925 19.1778 -0.00211015 -0.0224007 -0.022994 3
237 1 3.62627 7.86918 19.8276 0.00980937 0.0126364 -0.00519964 3
238 1 4.1165 9.17498 20.1468 -0.022654 -0.0292626 -0.00397082 3
248 1 5.97927 6.92616 19.5588 0.0204484 -0.0154256 -0.0249063 3
249 1 5.5542 9.24408 20.1545 0.000522689 0.0231875 0.0122186 3
259 1 6.50924 8.11136 20.1402 -0.0307523 -0.000421387 2.91378e-05 3
277 1 7.8666 7.98015 20.1119 -0.00463467 -0.0253879 0.00771077 3
276 1 8.56692 6.81044 20.0979 -0.000733769 -0.0275288 0.000240118 3
278 1 8.43408 9.23015 20.0043 -0.00401312 0.000517809 0.00122363 3
288 1 9.98951 6.63194 20.0843 0.00536519 -0.0361993 0.00495205 3
289 1 9.81584 9.12151 19.9973 -0.0106684 -0.0201831 -0.000654917 3
299 1 10.5283 7.93922 20.0082 0.00770996 -0.0268017 0.00108718 3
204 1 2.95231 -7.01559 22.2177 0.024081 -0.000524122 0.0235674 3
214 1 4.18946 -6.60319 22.4356 0.0258022 -0.0208333 0.02993 3
228 1 2.88855 -6.43971 23.236 -0.0459315 -0.0307964 -0.0204846 2
175 1 -5.20572 -2.8457 22.6573 0.0113157 0.0258903 0.0142466 1
189 1 -0.631846 -0.816343 22.4688 0.0153713 0.00412889 0.0118438 0
191 1 -2.76189 5.78848 22.6843 0.0527785 0.0318163 0.0586101 1
192 1 -6.17438 4.37196 24.3549 -0.0590815 0.0586026 0.0620682 0
206 1 3.20275 1.99737 24.1178 0.121511 0.0423231 0.0962483 1
215 1 3.86618 0.715496 24.5306 -0.0438568 -0.00268988 0.019638 1
233 1 6.53452 5.94872 24.2805 0.0672841 0.110126 0.050469 1
232 1 7.83086 3.23997 22.3293 0.0322351 0.0137227 0.0384464 0
193 1 -0.445134 7.18615 24.2764 0.0177001 0.0467481 0.0484424 1
177 1 -0.828177 7.56846 25.3705 0.0399812 0.0566535 0.0931495 1
231 1 5.80422 7.04188 24.5896 0.00452609 0.00887982 0.0495839 1
216 1 3.58312 -4.80822 33.1466 0.0449149 -0.0625209 0.193083 0
