ITEM: TIMESTEP
24400
ITEM: NUMBER OF ATOMS
168
ITEM: BOX BOUNDS pp pp pp
-1.4715758017245314e+01 1.5057610017245315e+01
-1.2710055654020760e+01 1.2664508654020761e+01
-5.0001035148846022e+01 1.0000103514884636e+02
ITEM: ATOMS id type x y z vx vy vz c_coord
92 1 -10.8289 -9.20991 20.0004 -0.000631306 0.00076297 1.11753e-05 3
93 1 -10.8498 -6.81824 20.0041 0.00417862 -0.000997638 5.54182e-05 3
103 1 -9.42334 -9.25355 20.0036 -0.000513531 0.00345647 5.11174e-05 3
104 1 -8.69542 -8.0924 20.0131 -0.00103605 -0.00361323 0.000184931 3
105 1 -9.47552 -6.92284 20.0157 0.00633949 -0.00966292 0.000308836 3
122 1 -7.35362 -8.24663 20.016 -0.020211 -0.0196479 0.000218557 3
132 1 -6.48891 -9.35402 20.0093 0.00140827 -0.000692343 0.000103104 3
133 1 -6.87122 -6.9503 20.025 -0.0192055 -0.0118853 0.00251095 3
143 1 -5.09543 -9.2612 20.0076 -0.00377647 -0.0140667 0.000198507 3
144 1 -4.5676 -8.1481 20.0153 -0.0053776 -0.0264984 0.00280841 3
145 1 -5.51036 -7.20802 20.0518 0.026347 -0.00982103 0.00641058 3
162 1 -3.22879 -8.43867 20.0312 -0.0190472 -0.0175302 0.00327223 3
172 1 -2.32548 -9.4035 20.0154 -0.00126157 -0.0159012 0.00229803 3
173 1 -2.68333 -7.05467 19.8139 -0.0133715 0.000111442 -0.0115564 3
183 1 -1.05754 -9.4844 20.0086 -0.011306 -0.0262446 0.00196339 3
184 1 -0.462711 -8.39381 19.9778 0.00874263 -0.0211997 0.000597062 3
185 1 -1.23943 -7.24108 19.9101 -0.00242921 -0.00328244 -0.0136795 3
202 1 0.97424 -8.41509 19.9507 0.0187578 -0.00689525 -0.00547687 3
212 1 1.82743 -9.43042 20.0086 0.00587759 -0.0142374 0.00246778 3
213 1 1.91441 -7.38325 19.6699 0.00944981 -0.0284528 -0.0152971 3
223 1 3.1806 -9.53487 20.0002 0.000471805 -0.0208857 0.00109889 3
224 1 4.01363 -8.51223 20.0188 0.0207835 0.0136757 0.00149538 3
225 1 3.40232 -7.37412 19.8207 0.0451528 -0.0130635 -0.0161039 3
242 1 5.40729 -8.31369 20.0065 0.0152864 -0.0162697 0.0015176 3
252 1 6.26507 -9.29389 20.0056 0.00572438 -0.022681 0.000105529 3
253 1 6.34307 -7.1934 20.0332 0.0130424 -0.0236757 0.0021681 3
203 1 0.962663 -6.41871 19.5383 0.0121421 -0.00945816 -0.0110315 2
265 1 7.76336 -6.92497 20.0199 0.0275802 -0.035114 0.00218101 3
263 1 7.69208 -9.2316 20.0066 0.00392819 -0.0141344 -9.52663e-05 3
264 1 8.43708 -8.05286 20.0113 0.0144912 -0.0299818 0.000197406 3
282 1 9.80976 -7.99887 20.0082 0.00489162 -0.00804803 4.14429e-05 3
292 1 10.4832 -9.2232 20.0033 -0.000917103 -0.00648764 3.64985e-05 3
293 1 10.5005 -6.76258 20.0077 0.0149076 -0.00877212 9.23617e-05 3
94 1 -10.8721 -4.31168 20.0089 0.0198833 -0.00345825 0.000340207 3
95 1 -10.875 -1.8614 20.0097 -0.00553704 0.0052646 0.000187323 3
106 1 -9.0221 -5.66591 20.0266 0.00810503 -0.00589025 0.0015868 3
107 1 -9.56317 -4.38111 20.0173 -0.00901525 -0.00813309 0.000770821 3
108 1 -9.05117 -3.12624 20.022 -0.0186362 0.00159055 0.00224255 3
109 1 -9.58914 -1.85758 20.0136 -0.0146738 0.00422938 0.00132095 3
110 1 -9.06823 -0.664227 20.0107 -0.0326154 0.00118186 0.00279346 3
123 1 -7.74731 -5.83916 20.0432 -0.0153842 -0.0220457 0.00613216 3
124 1 -7.82136 -3.22914 20.002 -0.0107496 -0.0127539 0.0036784 3
125 1 -7.82823 -0.699578 19.9548 -0.0106677 0.000476609 -0.000269131 3
134 1 -7.22975 -4.54668 20.0081 0.0119341 -0.00866184 0.00386927 3
135 1 -7.14564 -1.94507 19.9548 0.0154458 -0.0122037 -0.00675638 3
146 1 -4.99119 -6.09731 19.9339 0.0138479 -0.0281178 -0.00887316 3
147 1 -5.96005 -4.77088 19.6996 0.00188346 0.0116984 -0.0254464 3
148 1 -5.61076 -3.5489 19.3115 -0.00331115 -0.0231482 -0.0204311 2
149 1 -5.89459 -2.21438 19.3738 0.0117191 0.01919 -0.0289199 4
150 1 -5.09985 -0.859458 19.9917 0.0170523 0.0198238 -0.0059232 3
163 1 -3.6639 -6.15446 19.5355 0.00362282 0.00379235 -0.0262197 3
164 1 -3.75526 -4.36492 21.1493 0.00534728 -0.0106875 0.0304318 2
165 1 -5.37256 -1.94459 21.0375 -0.0481927 0.00746161 0.0661586 3
174 1 -3.18267 -4.66066 19.7777 -0.0124072 0.00310765 0.0362648 3
175 1 -5.33263 -3.55493 21.2617 -0.0387173 -0.0364065 0.0105994 2
186 1 -0.284126 -6.13667 19.6053 -0.00409787 0.00605184 0.00429905 3
187 1 -1.94006 -4.83694 20.5864 -0.00200906 0.0441553 0.0123106 2
188 1 -0.746679 -5.26301 20.5353 0.00230973 -0.0578594 0.011677 2
189 1 -1.24902 -0.94561 21.9917 0.016234 0.00537018 0.0157257 0
190 1 -1.58724 -2.00284 20.056 -0.0146876 -0.0536791 0.0257828 1
205 1 0.0613347 -1.7434 19.7435 -0.0661763 -0.0697219 -0.0197629 1
204 1 1.77178 -5.33645 20.7497 0.0541566 -0.0510077 0.0508985 1
214 1 2.91795 -5.27719 21.8623 0.0354545 -0.000293883 0.0206736 3
226 1 4.33238 -6.25525 19.5542 0.0164277 0.00195199 -0.00912673 3
227 1 3.69189 -4.91781 20.3496 0.0224941 -0.00420385 0.0450236 4
228 1 4.6009 -5.07073 21.7588 -0.00283871 -0.0399561 0.0661569 2
229 1 4.88169 -3.81208 20.4702 -0.00759333 -0.0727899 0.0267308 2
230 1 5.24694 -1.1477 21.1913 0.0252794 -0.0044613 0.0428275 1
243 1 5.78694 -6.00825 19.7944 -0.013359 -0.0172462 -0.0272693 3
244 1 5.95311 -3.32407 19.8911 0.0412483 -0.00428684 -0.0188908 3
245 1 6.46651 -0.924791 20.6912 -0.00756214 -0.00702249 0.00549675 3
254 1 6.59238 -4.7453 19.7805 0.00298296 -0.0133407 -0.013294 3
255 1 6.96832 -1.98494 19.6751 -0.00311217 0.00211098 0.0102514 3
267 1 7.9335 -4.48907 19.9644 0.0217571 -0.0182708 -0.00209544 3
269 1 8.28858 -2.03703 19.8347 0.00753334 -0.00814699 -0.0154572 3
266 1 8.4794 -5.81445 20.019 0.0136929 -0.00838655 0.00088123 3
268 1 8.85103 -3.28347 20.0092 0.0149983 0.00213675 -0.000215039 3
270 1 8.92657 -0.696353 20.0066 0.0237195 -0.0170929 0.00224742 3
283 1 9.81522 -5.55412 20.0135 0.0203749 -0.0159353 0.000614021 3
284 1 10.2172 -3.18887 20.0132 0.0368156 0.00304086 0.0018166 3
285 1 10.3084 -0.564402 20.0081 0.0518738 -0.00156302 0.00205196 3
294 1 10.5826 -4.34446 20.0057 0.0189116 -0.00985388 0.000188123 3
295 1 10.6438 -1.87568 20.0015 0.0264362 -0.0079044 0.000276031 3
96 1 -10.8872 0.606926 20.0078 -0.00994444 -9.34645e-05 0.000108835 3
97 1 -10.8644 3.00833 20.008 -0.00764232 0.000828343 0.000170863 3
98 1 -10.8376 5.56179 20.0063 -0.00323642 -0.00689633 0.000139855 3
111 1 -9.55951 0.565801 20.0055 -0.0104735 0.0092366 0.000775936 3
112 1 -8.93935 1.80297 20.0086 -0.0147843 -0.00233157 0.00177298 3
113 1 -9.51811 3.05679 20.014 -0.00526239 -0.0016657 0.00121321 3
114 1 -9.02474 4.34205 20.0161 -0.00730155 0.00174872 0.00102661 3
115 1 -9.47621 5.62526 20.0166 -0.00721978 0.010169 0.000936645 3
126 1 -7.7209 1.90188 19.9555 -0.0107988 0.00500907 -0.000170931 3
127 1 -7.77562 4.52521 19.9876 0.0113348 -0.00582451 -0.00114503 3
136 1 -7.18128 0.572686 19.8035 0.0247526 0.00226192 -0.00860433 3
137 1 -7.15316 3.24022 19.9154 -0.00371934 -0.00845919 -0.00688045 3
138 1 -7.0804 5.8154 20.0294 -0.00605731 0.0331821 0.00555705 3
151 1 -5.73057 0.428584 19.894 0.00318968 -0.0099375 0.00938255 3
152 1 -5.5096 2.0188 20.205 0.0109358 0.00442542 -0.00702823 3
153 1 -5.80745 3.20794 19.7456 0.0258785 -0.0252716 -0.00340682 3
154 1 -5.14378 4.82057 19.5173 0.00216211 -0.0041041 -0.0251084 3
155 1 -5.53829 5.95744 20.0724 0.00965988 -0.0234368 0.00642704 3
166 1 -4.32937 1.99896 21.1066 -0.00752165 -0.0279132 0.0322783 2
167 1 -3.75129 4.95065 19.1892 0.0108746 0.0139427 -0.0286379 2
176 1 -2.58752 3.20454 21.2656 0.0738057 0.0577807 0.0228477 2
177 1 -2.39081 5.38888 22.0071 0.031393 0.0509193 0.0789678 1
178 1 -2.70049 6.20684 19.0594 0.039144 -0.0238608 -0.0275237 3
191 1 -1.86777 2.82708 20.0491 -0.0758025 0.104798 0.0279016 1
192 1 -3.53219 1.73265 21.6776 -0.111302 0.0491511 0.0460123 2
193 1 -1.27775 5.1375 21.7867 0.039814 0.0467962 0.043005 2
194 1 -0.53003 4.82473 20.6803 -0.0489667 0.0139328 0.0193288 2
195 1 -1.15864 6.02485 19.5568 -0.00455952 -0.0558304 -0.00694553 3
215 1 1.44396 0.95287 21.6574 0.0934405 0.0957615 0.0793532 1
207 1 1.85914 4.45264 20.3813 0.0331046 0.0249007 0.00617283 2
217 1 3.30802 4.7266 20.9521 0.0219888 0.0324751 0.0264942 3
218 1 1.97763 6.04247 19.9015 0.0125409 -0.00292968 0.00282179 3
232 1 6.48524 2.7155 21.1049 0.0441417 0.00380383 0.0358849 0
233 1 4.21842 4.6013 21.9955 0.010308 0.0243836 0.101109 2
234 1 4.23895 4.78918 19.8297 0.0114277 0.0148393 -0.00296634 3
235 1 3.26612 6.27369 19.6082 -0.00284641 0.00907772 -0.0417354 3
246 1 6.19207 1.76777 19.4405 -1.94268e-05 0.0180952 0.00507741 2
247 1 5.69728 4.72345 19.3609 -0.0190158 -0.002562 -0.0232834 3
256 1 6.9212 0.468537 19.7677 0.000676916 -0.00115305 -0.00804326 3
257 1 6.85211 3.40626 19.4297 0.000458535 0.00964589 -0.0125964 3
258 1 6.27883 5.84523 19.9721 0.00232611 0.00131686 -0.00797444 3
275 1 7.75861 5.77425 20.0634 0.014029 0.0122274 0.00537898 3
273 1 8.14415 3.21331 20.0691 0.0119847 0.0380026 -0.0112297 3
271 1 8.43689 0.581839 19.8595 0.0288981 0.00218682 -0.00670993 3
272 1 8.91333 1.95687 19.9719 0.0501702 -0.00636898 -0.00156683 3
274 1 8.61197 4.60381 20.0135 0.0327892 0.00630305 0.0053632 3
286 1 10.1002 1.91048 20.0025 0.0420491 0.00433202 0.000929549 3
287 1 9.91233 4.37806 20.001 0.0350062 0.00907963 -0.000459051 3
296 1 10.618 0.663111 19.9953 0.0194892 0.00458368 -0.000317988 3
297 1 10.5773 3.12282 20.003 0.0119691 0.00551109 0.000285816 3
298 1 10.5263 5.53963 20.0042 0.0275116 0.0241943 -0.000294678 3
99 1 -10.8557 7.99895 20.0026 -0.00874121 0.0046704 2.29893e-05 3
116 1 -8.84453 6.87174 20.016 -0.0176216 0.00473762 0.000248057 3
117 1 -9.41881 8.05596 20.0099 -0.00260391 0.0062255 0.000114531 3
118 1 -8.64282 9.21461 20.0065 -0.0036639 0.00584686 6.77089e-05 3
128 1 -7.60243 7.06843 20.013 -0.00355464 0.0155562 0.000379303 3
129 1 -7.21873 9.17859 20.0076 -0.00689887 0.00737376 -4.75634e-06 3
139 1 -6.70035 8.06542 20.0095 -0.0206794 0.0162713 -8.11045e-05 3
156 1 -4.88805 7.18959 20.0697 -0.00547637 0.0121589 0.0104691 3
157 1 -5.39845 8.31241 20.0087 -0.00560244 0.0431057 0.00118064 3
158 1 -4.47898 9.31661 20.004 -0.00478252 0.0253199 -0.000194024 3
168 1 -3.32184 7.0139 20.0612 0.00620489 -0.00240951 -0.000198831 3
169 1 -3.12175 9.5371 20.0024 -0.0167872 -0.00636908 0.00117564 3
179 1 -2.46293 8.4212 20.0438 -2.67796e-05 0.0205334 0.00853135 3
196 1 -0.50361 7.33062 19.7901 0.016445 0.0133173 -0.010251 3
197 1 -1.10398 8.48416 19.999 -0.00996057 0.0363249 0.0013428 3
198 1 -0.211275 9.42086 20.0005 0.00273786 0.0197282 0.00122798 3
208 1 1.0706 7.09947 19.8053 0.0189319 -0.00405342 -0.0028871 3
209 1 1.07623 9.42722 19.9931 -0.00810593 0.0212619 0.000406549 3
219 1 1.7897 8.40826 19.9581 -0.0105404 0.00854971 -0.00362577 3
236 1 4.00889 7.30878 19.9774 0.0208275 0.0102444 -0.0015781 3
237 1 3.15823 8.36448 19.9914 0.0246418 0.0178299 0.00119508 3
238 1 3.97053 9.34839 20.0006 0.011387 0.018147 0.000769978 3
248 1 5.40973 7.10501 20.0127 0.0171138 0.0127247 0.00290334 3
249 1 5.36249 9.34745 19.9994 0.0101289 0.0152397 -0.000107991 3
259 1 6.20234 8.25917 20.0114 0.0128751 0.0164727 0.00124638 3
277 1 7.61873 8.04991 20.0096 0.00974857 0.0179581 3.42098e-05 3
276 1 8.39561 6.94602 20.0152 0.019798 0.0411021 0.000907491 3
278 1 8.38789 9.17216 20.006 0.00602294 0.012544 -0.000111849 3
288 1 9.76465 6.70553 20.0082 0.015242 0.0162359 -0.000124911 3
289 1 9.78056 9.13787 20.005 0.00532829 0.0114123 2.30405e-05 3
299 1 10.5082 7.93239 20.0052 0.00829337 0.0123711 -5.82631e-05 3
216 1 1.73268 -2.23235 25.1911 0.0449085 -0.0625235 0.193166 0
206 1 2.44255 0.136057 22.1993 -0.0165559 -0.0565684 0.0372403 1
231 1 5.02154 3.49839 22.2186 0.0689478 0.104838 0.0516468 1
