ITEM: TIMESTEP
22700
ITEM: NUMBER OF ATOMS
168
ITEM: BOX BOUNDS pp pp pp
-1.4715758017245314e+01 1.5057610017245315e+01
-1.2710055654020760e+01 1.2664508654020761e+01
-5.0001035148846022e+01 1.0000103514884636e+02
ITEM: ATOMS id type x y z vx vy vz c_coord
92 1 -10.8374 -9.22116 20.0004 0.00538259 0.00546962 1.08313e-05 3
93 1 -10.8733 -6.81054 20.0038 0.00909371 -0.0028708 0.000105612 3
103 1 -9.42372 -9.27111 20.0034 0.000718038 0.00610742 7.14518e-05 3
104 1 -8.70587 -8.08197 20.0124 0.0059062 -0.00275437 0.000222017 3
105 1 -9.50084 -6.89315 20.0146 0.00827882 -0.00723628 0.000339844 3
122 1 -7.28344 -8.17346 20.0153 -0.019283 -0.022596 0.000179605 3
132 1 -6.503 -9.34599 20.0089 0.00654762 -0.00443557 0.000115264 3
133 1 -6.82667 -6.91551 20.0181 -0.00666112 -0.00951765 0.00163267 3
143 1 -5.09914 -9.23068 20.007 0.00546499 -0.00342097 0.000179149 3
144 1 -4.54436 -8.07848 20.0069 -0.0073869 -0.0147616 0.00207901 3
145 1 -5.58463 -7.16117 20.0325 0.0161788 -0.017797 0.00508368 3
162 1 -3.16456 -8.33897 20.0183 -0.0173622 -0.0386657 0.0040687 3
172 1 -2.33129 -9.35714 20.0085 0.00375528 -0.011313 0.00175474 3
173 1 -2.62843 -7.08186 19.8572 -0.0182914 0.0122806 -0.0133588 3
183 1 -1.01548 -9.39541 20.0029 -0.0124383 -0.0246431 0.00138846 3
184 1 -0.478779 -8.31475 19.9758 0.000924125 -0.0251538 0.000502959 3
185 1 -1.21967 -7.2105 19.9441 -0.00799053 -0.0140911 -0.006526 3
202 1 0.913285 -8.38197 19.9683 0.0147315 -0.0145672 -0.00439705 3
212 1 1.81606 -9.38513 20.0017 0.00129568 -0.0128518 0.0016729 3
213 1 1.87429 -7.28904 19.7172 0.0156534 -0.0250399 -0.0128327 3
223 1 3.18583 -9.45027 19.9976 -0.00267454 -0.026555 0.000525884 3
224 1 3.94708 -8.49403 20.0126 0.0176591 -0.0186823 0.00207736 3
225 1 3.26871 -7.31089 19.8678 0.0327362 -0.0234159 -0.0120116 3
242 1 5.35842 -8.25279 20.0027 0.0126915 -0.0193879 0.000772374 3
252 1 6.2497 -9.23401 20.0055 0.00384381 -0.0121408 -5.11476e-06 3
253 1 6.2976 -7.11172 20.0254 0.0147063 -0.024104 0.00237132 3
265 1 7.66072 -6.81998 20.0141 0.0308988 -0.0263213 0.00123485 3
263 1 7.67756 -9.19181 20.0069 0.00408387 -0.00978037 -5.66327e-05 3
264 1 8.38674 -7.96105 20.0109 0.0150178 -0.023297 6.69364e-05 3
282 1 9.79762 -7.97345 20.008 0.00295516 -0.00685667 6.22639e-05 3
292 1 10.4937 -9.20814 20.0031 -0.0051386 -0.00290524 7.59093e-05 3
293 1 10.4602 -6.73528 20.0074 0.00794616 -0.00750176 9.43727e-05 3
94 1 -10.9497 -4.30168 20.0076 0.0231486 -0.0024079 0.000390949 3
95 1 -10.8771 -1.87685 20.0089 0.00630951 0.00308733 0.000256896 3
106 1 -9.04345 -5.64706 20.0217 0.00290629 -0.00525953 0.00128692 3
107 1 -9.5432 -4.36103 20.015 -0.0013606 -0.00396733 0.000590293 3
108 1 -8.99215 -3.13027 20.0153 -0.0156126 0.0011838 0.00170841 3
109 1 -9.54472 -1.87652 20.0097 -0.0111785 0.00631354 0.00101108 3
110 1 -8.96245 -0.669166 20.0025 -0.0254065 0.00138012 0.00195109 3
123 1 -7.68315 -5.76363 20.0248 -0.017836 -0.0189924 0.00440363 3
124 1 -7.76467 -3.1789 19.9907 -0.0200837 -0.0139359 0.0027797 3
125 1 -7.77322 -0.696654 19.9544 -0.0218597 -0.00365884 0.000438869 3
134 1 -7.27365 -4.51492 19.9989 0.0118624 -0.0103761 0.00174295 3
135 1 -7.21244 -1.91783 19.973 0.0148527 -0.00224285 -0.00173542 3
146 1 -5.0375 -5.97536 19.9511 0.0131808 -0.0413669 -0.0022508 3
147 1 -5.93422 -4.83378 19.7804 -0.0208127 0.0110102 -0.0184538 3
148 1 -5.57782 -3.5031 19.3875 -0.0118649 -0.0047595 -0.0327352 2
149 1 -5.92818 -2.22231 19.4644 0.0070443 -0.00890212 -0.0297131 4
150 1 -5.16175 -0.91477 20.0104 0.0213757 0.0105534 6.1999e-05 3
163 1 -3.67814 -6.12098 19.6255 0.00289394 -0.0225679 -0.0263002 3
164 1 -3.78451 -4.31539 21.014 0.00974355 -0.0172122 0.0486143 2
165 1 -5.1964 -2.00154 20.8257 -0.0533791 0.0192856 0.06039 3
174 1 -3.15047 -4.69017 19.7115 -0.00620415 0.0147958 0.00256238 3
175 1 -5.17162 -3.40942 21.2121 -0.0548728 -0.0382616 0.0210422 2
186 1 -0.294603 -6.16332 19.599 0.0110863 0.00776811 -0.000824467 3
187 1 -1.94193 -4.97438 20.5276 0.00302481 0.0349308 0.0227437 2
188 1 -0.755522 -5.0645 20.4947 0.00327479 -0.0571685 0.0121387 2
189 1 -1.30657 -0.970117 21.9263 0.0176835 0.00942705 0.0238044 0
190 1 -1.49771 -1.80753 19.9748 -0.0371202 -0.0614384 0.0203734 1
203 1 0.958046 -6.34655 19.605 -0.0095179 -0.032286 -0.0276855 3
204 1 1.60631 -5.17596 20.5899 0.0444557 -0.0432922 0.0444686 2
205 1 0.248968 -1.51275 19.816 -0.0450892 -0.0660257 -0.0223588 1
214 1 2.79324 -5.27083 21.7381 0.0375466 -0.003729 0.0500676 2
226 1 4.26071 -6.23139 19.616 0.0236547 -0.0168117 -0.0261662 3
227 1 3.65988 -4.92453 20.2212 -0.00464458 0.00562591 0.0289722 3
228 1 4.56906 -4.92127 21.4984 0.0206072 -0.050272 0.0892807 2
229 1 4.84388 -3.5815 20.4084 0.0312334 -0.0547451 0.00819074 2
230 1 5.17685 -1.12741 21.0429 0.0155841 -0.00756854 0.0444994 1
243 1 5.80675 -5.94276 19.8783 0.00232147 -0.0220498 -0.0218148 3
244 1 5.86694 -3.29354 19.9359 0.00805903 -0.0154877 -0.00639675 3
245 1 6.491 -0.901132 20.6203 -0.00440348 -0.00512455 0.0325913 3
254 1 6.58161 -4.69229 19.8172 0.0073719 -0.0165404 -0.00971097 3
255 1 6.9073 -1.99704 19.6844 0.034671 0.00372528 -0.0138389 3
267 1 7.87479 -4.42808 19.9715 0.013009 -0.0159159 -0.00209024 3
269 1 8.27393 -2.00139 19.885 0.00257444 -0.0130227 -0.0140926 3
266 1 8.42959 -5.76136 20.0156 0.0156123 -0.023105 0.00109388 3
268 1 8.78927 -3.30288 20.0085 0.0217771 0.00711609 0.000563136 3
270 1 8.85201 -0.636702 19.9987 0.0217043 -0.0165855 0.00245505 3
283 1 9.75994 -5.50896 20.0118 0.0124566 -0.00976226 0.000428644 3
284 1 10.0646 -3.18421 20.008 0.0504501 -0.00583098 0.00124919 3
285 1 10.1026 -0.569939 20.0024 0.0664832 0.00472767 0.00128234 3
294 1 10.5275 -4.32775 20.0053 0.0130139 -0.000854031 5.17411e-05 3
295 1 10.5699 -1.85634 20.0007 0.0172981 -0.00282562 0.000155862 3
96 1 -10.8716 0.599148 20.0074 0.000986155 0.00445893 0.000141378 3
97 1 -10.8577 3.01992 20.0074 0.00394893 -0.00718762 0.000225069 3
98 1 -10.8395 5.56584 20.0057 0.00500072 0.00454595 0.000178209 3
111 1 -9.52603 0.544943 20.0032 -0.00948532 0.0028679 0.000587676 3
112 1 -8.89931 1.81169 20.0034 -0.00878939 -0.00247757 0.00128991 3
113 1 -9.5054 3.06103 20.0104 -0.00247823 -0.00116461 0.000869354 3
114 1 -8.99687 4.3441 20.0129 -0.00855416 -0.00258131 0.0008316 3
115 1 -9.48279 5.61592 20.0142 0.00681143 -0.00145044 0.000556986 3
126 1 -7.67249 1.88067 19.9552 -0.0165184 0.00682281 0.000127664 3
127 1 -7.76403 4.52417 19.9901 -0.0125852 0.00510789 -0.00032842 3
136 1 -7.2314 0.564356 19.8348 0.00313655 0.00178637 -0.00935482 3
137 1 -7.15125 3.26898 19.9364 0.00123293 -0.00678175 -0.00549648 3
138 1 -7.04327 5.69175 20.0136 -0.0163493 0.0347799 0.00373185 3
151 1 -5.75881 0.474228 19.864 0.0125297 -0.0141623 0.00777266 3
152 1 -5.5281 1.96326 20.2362 -0.000847528 0.0233606 -0.0100144 3
153 1 -5.88214 3.3296 19.746 0.0170559 -0.0402562 0.00102234 3
154 1 -5.10623 4.79863 19.5936 -0.0216013 0.015303 -0.0203422 3
155 1 -5.6023 6.03908 20.0549 0.0264086 -0.0218232 0.0044166 3
166 1 -4.32193 2.0911 20.9785 0.00125327 -0.0264936 0.0403325 3
167 1 -3.77872 4.94087 19.2829 0.00281762 -0.00946918 -0.025746 2
176 1 -2.81687 2.97633 21.1618 0.0603361 0.0689535 0.0368842 3
177 1 -2.57848 5.23563 21.7614 0.0582067 0.044058 0.0693107 1
178 1 -2.82542 6.23102 19.1831 0.0296481 0.0142303 -0.0423474 3
191 1 -1.6333 2.48292 19.9869 -0.0644737 0.0984146 0.0123233 1
192 1 -3.12597 1.58392 21.5318 -0.120553 0.0448646 0.0407376 2
193 1 -1.3289 4.9571 21.6116 0.00985025 0.0546162 0.0574891 2
194 1 -0.381514 4.81063 20.5961 -0.0372587 -0.00688758 0.0296094 1
195 1 -1.18259 6.17665 19.5901 0.021974 -0.0288866 -0.011993 2
215 1 1.14546 0.616702 21.3976 0.081095 0.101194 0.0730101 1
206 1 2.47976 0.339272 22.0627 -0.00431301 -0.0622224 0.043565 1
207 1 1.7371 4.3855 20.3567 0.0398313 0.0121903 0.00930462 2
217 1 3.20667 4.59975 20.8581 0.0402005 0.0424957 0.0293414 3
218 1 1.91627 6.03874 19.893 0.0222956 0.00553674 0.00177107 3
231 1 4.79656 3.15587 22.0302 0.0641196 0.0930182 0.0602318 1
232 1 6.30487 2.70918 20.9688 0.0680574 0.000321015 0.0392401 1
233 1 4.22143 4.48095 21.6941 -0.01616 0.0504806 0.0755402 2
234 1 4.23842 4.76905 19.7949 -0.0114975 -0.00156618 0.0207577 3
235 1 3.30096 6.21955 19.738 -0.0131598 0.0212818 -0.033291 3
246 1 6.21782 1.70776 19.4442 -0.00966217 0.013882 -0.00424157 2
247 1 5.74589 4.68956 19.4646 -0.00806613 0.0221227 -0.0363946 3
256 1 6.89973 0.484477 19.8082 0.00958561 -0.00312669 -0.0150098 3
257 1 6.79112 3.35865 19.4995 0.0307871 0.0170232 -0.0299318 4
258 1 6.26281 5.84387 19.9943 0.00806998 7.39962e-05 -0.00539269 3
275 1 7.71069 5.71666 20.045 0.0129562 0.0208479 0.00523021 3
273 1 8.10551 3.11143 20.0938 0.00559822 0.0155306 0.00157627 3
271 1 8.30741 0.583982 19.8804 0.0451473 -0.00333879 -0.00566418 3
272 1 8.72057 1.96351 19.9753 0.0592225 0.00228549 -0.000708576 3
274 1 8.48575 4.56883 19.9989 0.0409172 0.0192728 0.00294366 3
286 1 9.96708 1.89386 20.0001 0.0382017 0.00504746 0.000513991 3
287 1 9.7975 4.33879 20.0027 0.0333063 0.0141316 -0.000532961 3
296 1 10.571 0.653336 19.9965 0.0089707 0.000606807 -0.000387333 3
297 1 10.5405 3.11399 20.0024 0.00989465 0.000596472 7.05889e-05 3
298 1 10.4463 5.46949 20.005 0.0179956 0.0162582 -0.000221689 3
99 1 -10.8312 7.97832 20.0025 -0.00480911 0.00680622 2.88172e-05 3
116 1 -8.8034 6.85005 20.015 -0.00659299 0.00729599 0.000331056 3
117 1 -9.41736 8.03916 20.0094 0.00120975 0.00319118 0.000141516 3
118 1 -8.63705 9.20487 20.0063 0.00030266 -0.000173999 9.76468e-05 3
128 1 -7.57143 7.00089 20.0122 -0.0153541 0.0242957 0.000101143 3
129 1 -7.21382 9.17197 20.0075 0.00380365 -0.00327898 9.49755e-05 3
139 1 -6.63645 8.02114 20.0096 -0.0157437 0.0105655 2.98878e-05 3
156 1 -4.82441 7.12161 20.0367 -0.0291655 0.0319777 0.00860008 3
157 1 -5.37587 8.16926 20.0057 -0.00580171 0.0342236 0.000791217 3
158 1 -4.47416 9.24253 20.0044 0.0020034 0.0177221 -3.74806e-05 3
168 1 -3.3443 7.05705 20.0488 0.00666862 -0.0225367 0.00394118 3
169 1 -3.07753 9.52049 19.9995 -0.0070652 0.018075 0.000535808 3
179 1 -2.47622 8.31791 20.0179 0.00507466 0.0362129 0.00658712 3
196 1 -0.520272 7.26974 19.8232 -0.0055784 0.0193226 -0.00985048 3
197 1 -1.07978 8.35826 19.9957 -0.00371275 0.0368174 0.000846546 3
198 1 -0.22572 9.35381 19.9967 0.00518014 0.0198964 0.0010047 3
208 1 1.00459 7.12882 19.8202 0.0164927 -0.00856342 -0.00587678 3
209 1 1.10724 9.35888 19.9921 -0.00989922 0.0181334 0.000153094 3
219 1 1.81852 8.34101 19.9665 -0.00540622 0.0284069 -0.00157603 3
236 1 3.94019 7.26665 19.9786 0.0190501 0.0140854 0.000290174 3
237 1 3.08873 8.30055 19.9885 0.0146327 0.0197509 0.000558278 3
238 1 3.93905 9.28936 19.9987 0.00711491 0.0164736 0.000379874 3
248 1 5.35624 7.06371 20.0037 0.0151836 0.0110206 0.00224941 3
249 1 5.3397 9.29673 19.9999 0.00297357 0.0137892 -0.000177753 3
259 1 6.15623 8.18749 20.008 0.013829 0.0245378 0.000772551 3
277 1 7.58129 8.00263 20.0094 0.0114267 0.0110801 3.69746e-05 3
276 1 8.33187 6.80356 20.0128 0.0173284 0.0404129 0.000543412 3
278 1 8.36571 9.13792 20.0062 0.00672973 0.00781502 -5.08841e-05 3
288 1 9.72673 6.66566 20.0085 0.00782051 0.00810337 -7.66403e-05 3
289 1 9.76842 9.1116 20.0048 0.0018525 0.00401099 5.94238e-05 3
299 1 10.4787 7.88776 20.0054 0.0081244 0.0131614 -2.10934e-05 3
216 1 1.57998 -2.01978 24.5343 0.0449114 -0.062512 0.193193 0
