ITEM: TIMESTEP
36600
ITEM: NUMBER OF ATOMS
168
ITEM: BOX BOUNDS pp pp pp
-1.4715758017245314e+01 1.5057610017245315e+01
-1.2710055654020760e+01 1.2664508654020761e+01
-5.0001035148846022e+01 1.0000103514884636e+02
ITEM: ATOMS id type x y z vx vy vz c_coord
92 1 -10.9974 -9.27372 20.0002 -0.00513622 0.00125327 -0.000105961 3
93 1 -10.9744 -6.8284 19.9952 -0.0045864 -0.00127642 -0.00101188 3
103 1 -9.64972 -9.47558 19.9969 -0.00589498 0.00629443 -0.000768179 3
104 1 -8.99164 -8.22783 20.009 -0.00685128 0.00164794 -0.000196608 3
105 1 -9.65145 -6.99415 20.0153 0.00639641 0.00485713 0.00137742 3
122 1 -7.63941 -8.24317 20.0548 -0.00477406 0.019864 0.00568033 3
132 1 -6.80927 -9.31086 19.9996 -0.000269655 0.022408 -0.00122749 3
133 1 -6.73243 -7.14612 20.2296 -0.00398503 0.00689571 0.0111836 3
143 1 -5.50218 -9.5206 20.0541 0.00223441 0.0329426 0.00662479 3
144 1 -4.77749 -8.35358 20.1808 -0.00608848 0.0191287 0.00712977 3
145 1 -5.31816 -7.14551 20.0188 0.0233707 0.0396429 -0.0286662 3
162 1 -3.34036 -8.17676 20.0385 -0.00939354 0.0231159 -0.00720812 3
172 1 -2.38618 -9.22972 20.1522 -0.000951451 -0.00459304 0.00728691 3
173 1 -2.42792 -7.06747 19.3484 0.0386183 0.00559639 -0.0201063 3
183 1 -0.97631 -9.25257 20.1204 0.0207819 0.0188215 0.00750743 3
184 1 -0.186053 -8.26657 19.8154 0.0155883 0.0212608 -0.0263201 3
185 1 -0.929196 -7.21838 19.2766 0.0449775 0.0377642 -0.0109504 3
202 1 1.35369 -8.30422 19.6942 0.00238886 0.0114761 -0.0157282 3
212 1 2.18339 -9.34438 20.1456 0.0195766 0.0209807 0.00483395 3
213 1 2.13868 -7.18661 19.3915 -0.00914582 0.0581606 0.00174168 3
223 1 3.63557 -9.22329 20.1244 0.0138657 0.00541598 0.00877455 3
224 1 4.58163 -8.24088 19.9146 -0.00429354 0.0366453 -0.0210719 3
225 1 3.69458 -7.20166 19.2601 0.0381814 0.0245376 -0.00885724 3
242 1 5.88005 -8.34749 20.128 0.0118598 0.0285719 0.00268496 3
252 1 6.46515 -9.49731 20.071 -0.00320325 0.0219714 0.00691778 3
253 1 6.62923 -7.2216 19.8457 0.0230672 0.000497664 -0.010681 3
204 1 2.32889 -6.75909 21.6046 0.0123551 -0.0261671 0.0172292 2
265 1 8.02235 -7.18418 20.0634 -0.00267912 0.00503816 -0.000968565 3
263 1 7.70917 -9.38343 19.9968 0.00811544 0.0128798 -0.00109257 3
264 1 8.63484 -8.3877 20.0583 0.00338966 0.0239116 0.00462566 3
282 1 9.97393 -8.37318 20.0104 -0.00729408 -0.0107663 0.000835002 3
292 1 10.6634 -9.44115 19.998 0.00199943 -0.00537038 -0.000651839 3
293 1 10.6308 -7.12474 20.0207 -0.00968526 -0.0081302 0.00171432 3
94 1 -11.0187 -4.3281 20.0051 0.0190963 0.00158448 0.000155097 3
95 1 -11.1196 -1.87147 20.0204 0.0254483 0.00284275 0.00188911 3
106 1 -8.83928 -5.79073 20.1286 0.0107101 0.00540458 0.00718573 3
107 1 -9.66389 -4.52536 20.0726 0.0118499 -0.00245177 0.00591335 3
108 1 -8.99468 -3.24074 20.1313 0.00294904 -0.000133515 0.00477252 3
109 1 -9.71348 -1.97657 20.0783 0.0337772 -0.0197294 0.00469224 3
110 1 -9.08871 -0.729551 20.0562 0.00331546 -0.00598028 -0.000747536 3
123 1 -7.38485 -5.89938 20.2499 0.0137037 0.0246976 0.00256875 3
124 1 -7.54869 -3.32325 19.9765 0.02108 -0.0151326 -0.00785887 3
125 1 -7.65702 -0.814744 19.777 0.0185406 0.00326907 -0.0182755 3
134 1 -6.79985 -4.55561 19.9471 0.010893 0.000801696 -0.00897803 3
135 1 -7.05239 -2.10414 19.333 -0.0123908 0.00859002 -0.0209146 3
146 1 -4.8079 -5.98206 19.2339 0.0180029 -0.00487513 -0.0221653 3
147 1 -5.62567 -4.5466 18.9843 0.00818937 0.00430668 -0.0203234 3
148 1 -5.341 -3.42626 18.6716 0.0307865 0.00573941 -0.0256763 2
149 1 -5.66334 -2.19978 19.0951 0.0143223 0.0114043 0.0173576 2
150 1 -5.40091 -1.40845 20.7141 -0.0315902 0.00990341 0.00679863 1
163 1 -3.29767 -5.7448 19.5087 -0.0100636 0.00508336 0.0125312 3
164 1 -4.52889 -4.22718 21.7924 -0.0136245 -0.0194703 -0.00303417 2
165 1 -5.61228 -2.01786 21.7411 -0.0105486 0.0336341 -0.00052478 2
174 1 -3.23696 -4.7533 20.8382 -0.00576975 0.0163317 0.0717227 3
175 1 -5.32033 -3.28907 22.0563 0.0221465 -0.00664697 0.0538822 2
186 1 0.042217 -6.2468 19.9847 0.000789293 0.0187653 0.0644969 3
187 1 -1.71794 -4.45952 20.7336 0.00520904 -0.051221 -0.0105961 3
188 1 -0.746924 -5.50671 20.9037 0.0257836 -0.0111023 -0.0155869 2
190 1 -2.09719 -2.90465 21.1183 -0.0256988 0.0151255 0.0394075 1
205 1 -1.37189 -3.45028 19.009 -0.0549062 -0.0677784 -0.0154001 0
203 1 1.58794 -6.20876 20.4576 0.0211432 -0.0216106 0.0530724 3
226 1 4.47322 -5.95692 19.495 -0.00411899 -0.000358586 0.00407752 3
227 1 4.37321 -5.03954 20.9017 0.041742 0.0022175 0.0240689 3
229 1 5.36119 -4.24814 20.8482 0.00813204 -0.00372146 -0.00571415 2
230 1 6.17606 -0.948486 21.7524 0.043957 0.0261702 -0.0148452 1
243 1 6.07621 -5.95015 19.2701 -0.00265483 -0.00532024 -0.0179693 3
244 1 6.10895 -3.66225 20.0456 0.000913151 -0.0095757 0.0217005 3
245 1 6.14666 -0.863973 20.4126 -0.0136657 -0.0272227 0.0151251 3
254 1 7.00335 -4.92778 19.2279 0.00047496 0.0395332 -0.0105716 3
255 1 6.73985 -2.18511 20.1482 -0.0343329 -0.0130692 0.0106791 3
214 1 3.62843 -5.84774 21.8996 0.0520494 -0.0561946 0.00871161 3
267 1 8.21499 -4.76227 19.7265 0.0104413 -0.0182062 -0.0152139 3
269 1 7.90651 -2.13428 19.7174 -0.0279738 0.00192449 0.00449996 3
266 1 8.79489 -6.072 20.0553 0.00228138 0.007913 -0.00026851 3
268 1 8.54296 -3.44812 19.7793 -0.0320099 -0.017742 -0.0164729 3
270 1 8.4325 -0.632613 19.7797 -0.0302749 0.00987387 -0.0129288 3
283 1 10.0558 -5.89052 20.0824 -0.0101846 -0.0139068 0.00527484 3
284 1 9.83536 -3.43011 20.0936 -0.0276348 0.00142248 0.000762673 3
285 1 9.73203 -0.933964 20.12 -0.0284583 -0.00490392 -0.00157184 3
294 1 10.538 -4.52487 20.0546 -0.00166425 -0.0151328 0.00443394 3
295 1 10.5713 -2.0419 20.0348 -0.0243043 -0.0131696 0.00640374 3
96 1 -11.0884 0.590842 20.0183 0.0152567 0.00042149 0.00154354 3
97 1 -11.001 3.05033 20.0211 0.0143452 -0.0046451 0.00140973 3
98 1 -10.9926 5.56831 20.0142 0.0148934 0.00113363 0.000914858 3
111 1 -9.70434 0.651179 20.0585 0.0369696 0.00301993 0.0040538 3
112 1 -9.01016 1.94966 20.0322 0.00985815 -0.00462185 -0.00293057 3
113 1 -9.605 3.2822 20.0539 0.0191069 0.00623321 0.00162022 3
114 1 -8.91967 4.4724 20.052 0.00424903 -0.000341949 0.00129041 3
115 1 -9.58959 5.6716 20.0536 0.0190283 0.0169517 0.00153875 3
126 1 -7.62693 1.8614 19.8232 0.0130382 0.00678681 -0.00961354 3
127 1 -7.3561 4.50335 19.9747 0.0294907 0.0099238 -0.00178572 3
136 1 -6.9352 0.508433 19.7583 0.0171519 -0.012493 0.00705115 3
137 1 -6.72099 3.16048 19.6511 -0.00837455 -0.00486018 -0.00186251 3
138 1 -6.68635 5.72779 20.1329 0.00724957 -0.00873032 -0.00693496 3
151 1 -5.52209 0.363464 20.0967 0.0119014 -0.0122992 0.029057 2
152 1 -4.69552 1.78701 20.1025 0.0320849 -0.00963469 0.00868294 3
153 1 -5.35724 2.99877 19.4234 0.0407303 -0.0397243 -0.00393784 3
154 1 -4.74516 4.58051 19.2784 0.0193352 0.00809542 -0.00832463 3
155 1 -5.27297 5.77228 19.904 -0.0142141 -0.0171135 -0.00667445 3
166 1 -4.79128 1.44378 21.3975 -0.0319508 -0.0128083 -0.019346 1
167 1 -3.57115 5.10183 18.438 0.0292742 -0.0339492 -0.0283216 2
176 1 -1.51026 4.45307 21.3918 0.0073058 0.0502385 -0.0126401 2
178 1 -2.44012 5.98328 19.2104 -0.00545003 -0.000586637 -0.00362847 3
191 1 -3.12331 4.9586 21.3219 -0.00530391 0.0603922 0.093424 2
194 1 -1.60789 4.96385 20.7418 -0.049861 0.0191043 -0.00619481 3
195 1 -1.13282 5.50235 19.5982 -0.020654 -0.0203812 -0.000908388 3
207 1 2.68761 5.27064 21.0649 0.00945389 0.0429809 0.0569517 2
217 1 4.20365 4.98196 21.3976 0.0341061 0.000912184 0.00603238 2
218 1 2.28522 6.07401 19.536 0.0125902 -0.00592084 -0.0217388 3
232 1 7.29073 3.00633 21.7495 0.0323792 0.0137224 0.0287703 0
234 1 4.3835 4.99767 19.8375 0.0163414 -0.0073838 -0.00575632 3
235 1 3.55658 6.11781 19.0969 0.0237183 -0.0265048 0.00115551 3
246 1 6.41995 1.98924 19.9101 -0.043384 0.00421548 0.0220292 2
247 1 5.832 4.74353 19.5956 0.00781446 -0.00149497 0.0137903 3
256 1 6.7988 0.584201 20.0755 -0.0316562 -0.00427613 0.0226525 3
257 1 6.54401 3.26351 19.6629 0.00669874 -0.0235614 0.0160943 3
258 1 6.57532 6.01389 19.5967 0.0185043 0.0188263 -0.0114124 3
275 1 7.91675 5.89673 19.9766 0.0170062 -0.0195158 -0.0100832 3
273 1 7.94162 3.30661 19.6107 -0.0132723 -0.0064787 -0.0150864 3
271 1 8.04152 0.582815 19.7586 -0.028257 0.014807 -0.00487127 3
272 1 8.50912 2.08373 19.7719 -0.00816912 -0.018529 -0.0134589 3
274 1 8.41054 4.59109 20.0628 -0.0237178 -4.476e-05 -0.00717882 3
286 1 9.83374 1.85848 20.0389 -0.0486443 0.0174594 -0.00299504 3
287 1 9.80618 4.5034 20.0444 -0.0239652 -0.00256374 0.00531545 3
296 1 10.6419 0.49076 20.0229 -0.017067 0.00845785 0.00512162 3
297 1 10.4591 3.00382 20.043 -0.00121589 0.0206174 0.00218413 3
298 1 10.408 5.67822 20.0057 -0.0197889 -0.0256431 0.00136474 3
99 1 -11.0085 7.96841 20.0031 -0.00853017 0.00986631 -4.93011e-05 3
116 1 -8.91216 6.8949 20.0217 0.00940683 -0.00920914 0.0019155 3
117 1 -9.64124 8.14025 20.0058 0.0118881 -0.0205245 -0.000355559 3
118 1 -8.94658 9.33748 20.0047 0.0151205 -0.0116137 -0.000439855 3
128 1 -7.41703 6.99408 20.0902 0.0210421 -0.0235711 0.00650532 3
129 1 -7.44551 9.38662 19.9946 0.0152368 -0.036605 -0.00067841 3
139 1 -6.80054 8.23557 20.0428 0.0116179 -0.0432824 0.0063467 3
156 1 -4.57677 6.76179 20.0821 0.00894673 -0.0192642 -0.00949645 3
157 1 -5.32233 7.85282 20.1497 -0.00186921 -0.00778604 0.00544796 3
158 1 -4.59796 9.01723 20.0052 0.00225494 -0.0160363 0.00592815 3
168 1 -3.24545 7.00225 19.4598 0.013619 -0.00360101 -0.0148007 3
169 1 -3.01551 9.12892 20.1321 0.00395096 -0.0416906 0.00889797 3
179 1 -2.3438 7.86437 20.1211 0.0222492 -0.0127224 -0.0107869 3
196 1 -0.202788 6.62872 19.5531 0.0349738 -0.0104979 0.00164524 3
197 1 -1.01511 7.67693 19.8983 -0.0019246 -0.0262971 -0.00407308 3
198 1 -0.27373 9.02172 20.0574 0.0122917 0.00201344 -0.00244337 3
208 1 1.27178 6.86681 19.7263 0.0054455 -0.0274024 -0.00679745 3
209 1 1.1535 9.11706 19.9814 -0.00791163 -0.0198677 0.000832727 3
219 1 2.03072 8.17299 19.8706 0.0206528 -0.0464608 -0.00348365 3
236 1 4.41415 7.16005 19.5489 0.0133203 -0.00959138 -0.0260626 3
237 1 3.54923 8.24631 19.9996 0.00772832 -0.00998383 -0.00515903 3
238 1 4.22413 9.22136 20.0764 -0.00665593 -0.0279774 0.00622046 3
248 1 5.78897 7.01324 19.9034 0.0150031 0.0100076 -0.0115331 3
249 1 5.66133 9.29794 20.0208 0.00422577 -0.0250969 0.00288103 3
259 1 6.51364 8.14953 20.0854 0.00617779 -0.0207713 0.00273406 3
277 1 7.91784 8.3085 20.0271 0.0126842 -0.00974137 0.00244986 3
276 1 8.60825 7.18621 20.0846 0.00990037 -0.0042626 0.00246174 3
278 1 8.57051 9.48482 19.9977 -0.00160913 -0.0177811 -0.000165268 3
288 1 9.91496 7.11444 20.0293 -0.0191502 0.0103237 0.00293701 3
289 1 9.85402 9.45253 20.0033 0.00142016 0.00424854 -0.000148028 3
299 1 10.6262 8.3401 19.9995 -0.00361705 -0.011536 -0.000120381 3
189 1 -0.8856 -0.878638 22.2724 0.0147735 0.00310938 0.0114206 0
228 1 3.91978 -5.94957 23.3662 -0.0713677 -0.0289167 0.028879 1
192 1 -5.18242 3.3879 23.3085 -0.0589353 0.0584293 0.0623365 0
193 1 -0.682077 6.32058 23.2073 0.0272393 0.0444372 0.0477113 1
206 1 2.02747 0.66139 22.9621 0.0214824 0.0830674 0.0452315 0
215 1 3.73896 1.38696 23.736 0.0558907 -0.0436234 0.0710346 0
233 1 5.21203 5.01637 23.6026 0.079772 0.0189173 0.0344792 1
231 1 5.92205 5.97652 23.5828 -0.00847308 0.0998221 0.065504 1
177 1 -1.55621 6.70143 24.0598 0.0298845 0.0582082 0.0937989 1
216 1 2.82855 -3.75787 29.9028 0.0449149 -0.0625208 0.193084 0
