ITEM: TIMESTEP
38400
ITEM: NUMBER OF ATOMS
330
ITEM: BOX BOUNDS pp pp pp
-1.4715758017245314e+01 1.5057610017245315e+01
-1.2710055654020760e+01 1.2664508654020761e+01
-5.0001035148846022e+01 1.0000103514884636e+02
ITEM: ATOMS id type x y z vx vy vz
44 1 0.0735585 -1.35276 -4.89452 0.00338107 -0.00349107 -0.0166913
20 1 -0.494398 -1.76687 -3.68307 0.00251187 -0.00335957 -0.0186451
4 1 -0.982987 -0.75216 -2.83194 0.00123597 0.00382187 -0.0200367
60 1 0.170842 -2.8045 -2.89196 -0.000834269 0.000718527 -0.0231663
28 1 1.33102 -1.96871 -5.29698 0.00202705 0.00335927 -0.0153447
8 1 2.06606 -0.920058 -5.88912 0.00316786 0.00436255 -0.0134397
7 1 3.44776 -0.932388 -5.68161 -0.00174026 0.000373237 -0.0190403
26 1 4.12596 -2.01214 -5.01633 0.00876791 0.00419573 -0.00996798
52 1 1.9359 -3.03325 -4.57979 0.00197232 -5.40333e-05 -0.0171199
40 1 5.22293 -1.37854 -4.33866 0.0113539 -0.000265338 -0.022526
50 1 3.36979 -3.0493 -4.3661 0.00641611 -0.00397028 -0.0149565
36 1 1.32132 -3.50074 -3.34243 -0.0020888 0.00540993 -0.017396
16 1 5.52015 -1.83441 -3.00517 0.0022199 0.00116829 -0.0217019
35 1 3.68738 -3.58453 -3.08446 0.00388689 0.004478 -0.0184772
12 1 2.38339 -3.82405 -2.45738 -0.000562309 0.00138815 -0.0139342
42 1 0.137299 0.0195329 -5.29223 0.0079684 -0.00374888 -0.0244964
18 1 -0.347582 1.02481 -4.42858 -0.00316217 0.00496161 -0.0221249
3 1 -0.908698 0.61032 -3.18396 0.00273676 0.00255086 -0.010082
56 1 0.325829 2.32751 -4.21519 -0.000340078 -0.00537947 -0.0200316
27 1 1.35049 0.309136 -5.93429 -0.00283271 -0.00104379 -0.0207306
51 1 2.03338 1.55629 -5.68961 0.00562748 0.00454029 -0.0103677
25 1 4.13956 0.292538 -5.44784 0.00057872 0.00745251 -0.0218093
49 1 3.47837 1.5589 -5.47962 0.00284274 0.00706729 -0.0221673
38 1 5.22037 0.0207265 -4.57203 0.011053 -0.00170288 -0.0127348
32 1 1.54925 2.60681 -4.82873 0.0040053 -5.00115e-05 -0.0177172
31 1 3.78413 2.49544 -4.43795 -0.000209391 -0.00601091 -0.0221742
10 1 2.58479 3.20365 -4.06402 0.00474345 0.00132739 -0.0232842
14 1 5.55284 1.04776 -3.63407 0.00934375 -0.00101259 -0.0182057
55 1 4.82703 2.26548 -3.53008 0.00603208 -0.0016761 -0.0139085
54 1 0.192272 2.65162 -2.84237 -0.00547952 -0.00227173 -0.0217023
9 1 2.53454 3.49831 -2.66089 -0.00574938 -0.00278251 -0.0163604
19 1 -0.712327 -1.21889 -1.48258 0.00816422 0.00376952 -0.0164562
58 1 -0.0254027 -2.48532 -1.51313 0.00550823 0.0012611 -0.0185792
43 1 -0.341187 -0.235294 -0.554492 0.00375685 -0.00182051 -0.00811725
2 1 5.80756 -0.806108 -1.98587 0.000130411 0.000809466 -0.020259
59 1 4.70698 -2.86512 -2.39203 0.001121 0.0030595 -0.0222071
11 1 2.25906 -3.38863 -1.05051 0.00377055 0.00688388 -0.0185041
57 1 4.49255 -2.48602 -1.0435 0.000670672 0.000542903 -0.0198102
34 1 1.06667 -2.77092 -0.580636 0.000237617 -0.000512339 -0.015728
15 1 5.13287 -1.22915 -0.803036 5.98562e-05 0.00277399 -0.0205125
33 1 3.32205 -2.77178 -0.330841 -0.00496311 -0.00153439 -0.0205945
39 1 4.63294 -0.246454 0.123749 -0.00264075 0.00295854 -0.0203785
24 1 0.683411 -0.473367 0.425347 0.00429341 -0.00256032 -0.0100057
48 1 1.33508 -1.77496 0.442468 -0.00408562 -0.00219634 -0.0105358
46 1 2.75539 -1.77194 0.598889 0.00547908 -0.00320217 -0.0212508
22 1 3.44054 -0.5067 0.820923 -0.0026241 0.000582703 -0.0134808
17 1 -0.597109 1.62119 -2.19914 -0.000637827 -0.00197651 -0.0175199
41 1 -0.303581 1.18472 -0.845718 -0.000744898 0.00205359 -0.0169796
30 1 1.26709 3.28297 -2.0834 0.0013743 -0.00457824 -0.0201584
1 1 5.78355 0.610149 -2.25582 0.00156419 -0.00880085 -0.0151961
53 1 4.72305 2.65335 -2.15298 0.00752212 0.00174734 -0.0154303
29 1 3.52448 3.28217 -1.72576 -0.000219433 0.00393164 -0.0143194
13 1 5.37608 1.61326 -1.33681 0.00159807 -0.0061849 -0.0179687
23 1 0.775134 1.74503 -0.104548 -0.00040831 -0.00311202 -0.0170157
47 1 1.50864 2.85749 -0.712292 0.0113714 -0.00930824 -0.0205783
37 1 4.70594 1.14594 -0.17112 -0.00299948 -0.00365794 -0.0227037
45 1 2.9232 2.8497 -0.504036 0.00514221 -0.00358502 -0.0256328
6 1 1.3467 0.747367 0.744538 0.00190493 -0.000259289 -0.0142966
21 1 3.56767 1.82052 0.326673 -0.000817833 -0.000708701 -0.0135163
5 1 2.75236 0.770079 0.881688 0.00249797 0.00195791 -0.0181677
61 1 -13.6674 -11.9461 19.9999 0 0 0
62 1 -13.1228 -10.6724 19.9999 0 0 0
63 1 -13.7825 -9.34696 19.9999 0 0 0
64 1 -13.0772 -8.00396 19.9999 0 0 0
65 1 -13.7542 -6.79742 19.9999 0 0 0
81 1 -11.507 -10.5408 19.9999 0 0 0
82 1 -11.5331 -8.01671 19.9999 0 0 0
91 1 -10.7591 -11.6424 19.9999 0 0 0
92 1 -10.8539 -9.22437 20.0452 0.00538657 0.00579814 0.00832871
93 1 -10.9102 -6.75621 20.1831 0.000483051 -0.000741376 -0.00349154
101 1 -9.52473 -11.6468 19.9999 0 0 0
102 1 -8.74136 -10.5124 19.9999 0 0 0
103 1 -9.43374 -9.21441 20.1623 0.0118819 -0.00250296 -0.000847048
104 1 -8.761 -7.97951 20.2886 -0.00356769 0.0037486 0.00538506
105 1 -9.47518 -6.77963 20.3001 0.00485113 -0.00680972 -0.00200752
121 1 -7.27873 -10.5146 19.9999 0 0 0
122 1 -7.29936 -8.04443 20.4477 -0.00131848 -0.00561891 -0.00105333
131 1 -6.50232 -11.6488 19.9999 0 0 0
132 1 -6.54692 -9.24277 20.3291 0.0108153 -0.000699411 0.00235107
133 1 -6.70992 -6.74808 20.5509 0.00840972 -0.0040141 0.00594199
141 1 -5.25854 -11.6473 19.9999 0 0 0
142 1 -4.47674 -10.5145 19.9999 0 0 0
143 1 -5.1793 -9.19946 20.3357 -0.00589799 -0.0117404 -0.00077545
144 1 -4.54727 -7.97398 20.4465 0.0107981 -0.00665091 -0.00662648
145 1 -5.34509 -6.73944 20.5207 0.00100356 -0.00701775 0.000977398
161 1 -3.01281 -10.5144 19.9999 0 0 0
162 1 -3.10206 -7.95421 20.3979 0.00629251 -0.00709811 0.00148744
171 1 -2.23133 -11.6474 19.9999 0 0 0
172 1 -2.40021 -9.21578 20.0661 0.00452791 -0.00587699 0.00328722
173 1 -2.41752 -6.75848 20.3846 -0.00161586 -0.00826548 0.00830749
181 1 -0.986751 -11.6474 19.9999 0 0 0
182 1 -0.205108 -10.5143 19.9999 0 0 0
183 1 -0.962794 -9.19357 19.9388 0.00050783 0.001781 0.00547398
184 1 -0.252311 -7.97867 19.9709 0.00528721 -0.000974861 -0.00437248
185 1 -0.981663 -6.72899 20.1765 -0.00582119 0.000954202 -0.0051307
201 1 1.25901 -10.5143 19.9999 0 0 0
202 1 1.14421 -8.02477 20.0514 0.00292595 0.00800551 -0.0151532
211 1 2.0406 -11.6474 19.9999 0 0 0
212 1 1.92667 -9.20216 19.9701 0.0083538 0.00961205 -0.000951366
213 1 1.81756 -6.75079 19.9982 -0.000339714 -0.0107833 -0.00784167
221 1 3.28523 -11.6473 19.9999 0 0 0
222 1 4.06705 -10.5143 19.9999 0 0 0
223 1 3.35739 -9.28733 20.016 -0.00493738 -0.0073492 0.0113651
224 1 4.07447 -8.06424 20.0782 -0.000646225 -0.00899337 -0.008701
225 1 3.26448 -6.86355 20.0778 0.00586725 -0.00763269 7.35846e-05
241 1 5.53108 -10.5143 19.9999 0 0 0
242 1 5.45895 -7.96478 20.0953 0.00308216 -0.00612251 -0.0006642
251 1 6.31174 -11.6474 19.9999 0 0 0
252 1 6.2435 -9.21056 20.0527 0.00369495 0.00699406 0.00993542
253 1 6.18874 -6.72599 20.2213 -0.00934291 -0.00840994 -0.00600061
261 1 7.55524 -11.6498 19.9999 0 0 0
263 1 7.62775 -9.17464 20.0092 0.0125273 0.00627447 0.00284775
265 1 7.61227 -6.68332 20.1712 -0.00245111 0.00510973 0.00644291
262 1 8.33779 -10.5154 19.9999 0 0 0
264 1 8.28359 -7.92765 20.1829 0.00129891 0.000705269 0.0126547
281 1 9.79556 -10.5245 19.9999 0 0 0
282 1 9.7559 -7.93263 20.1052 0.00404896 0.00142034 0.00389852
291 1 10.5816 -11.6418 19.9999 0 0 0
292 1 10.4912 -9.1569 20.0541 -0.00879456 0.00270128 0.00306791
293 1 10.4744 -6.72577 20.2832 0.00230725 -0.00173707 0.000226011
301 1 11.8019 -11.7522 19.9999 0 0 0
302 1 12.7161 -10.5156 19.9999 0 0 0
303 1 11.8934 -9.22642 19.9999 0 0 0
304 1 12.655 -8.00627 19.9999 0 0 0
305 1 11.8992 -6.77596 19.9999 0 0 0
321 1 14.087 -10.4984 19.9999 0 0 0
322 1 14.0714 -8.01298 19.9999 0 0 0
66 1 -13.0658 -5.54976 19.9999 0 0 0
67 1 -13.7179 -4.30197 19.9999 0 0 0
68 1 -13.0406 -3.0891 19.9999 0 0 0
69 1 -13.6883 -1.86008 19.9999 0 0 0
70 1 -13.0424 -0.636745 19.9999 0 0 0
83 1 -11.5387 -5.54743 19.9999 0 0 0
84 1 -11.5566 -3.09089 19.9999 0 0 0
85 1 -11.5625 -0.637245 19.9999 0 0 0
94 1 -10.8327 -4.3463 20.1465 0.000705411 -0.00304476 -0.0088238
95 1 -10.8744 -1.8279 20.0232 0.00668453 0.00439748 0.00411085
106 1 -8.76211 -5.5415 20.3983 -0.00503317 -0.00921127 -0.00453191
107 1 -9.39276 -4.29868 20.3021 -0.00661479 0.00587385 0.00255287
108 1 -8.63979 -3.03712 20.3088 0.00313643 -0.00756466 -0.0106708
109 1 -9.40995 -1.88369 20.2058 -0.003362 -0.00203742 -0.0115373
110 1 -8.83187 -0.62847 20.2722 0.0132412 0.000996943 -0.0180284
125 1 -7.38092 -0.613009 20.4712 0.0157397 0.00658244 -0.0119094
124 1 -7.27851 -3.02879 20.589 -0.00110458 -0.00355049 -0.00929307
123 1 -7.36351 -5.50929 20.5182 0.00557842 -0.00659341 0.000699318
186 1 -0.309935 -5.52762 19.9361 -0.00771351 -0.0127236 -0.0119366
134 1 -6.62307 -4.27833 20.7002 0.00819155 0.00255198 0.00220576
163 1 -3.15102 -5.57445 20.4441 0.0060664 -0.00390437 0.0066556
135 1 -6.5714 -1.75563 20.7102 0.00241024 -0.00508098 -0.00873085
146 1 -4.58227 -5.53631 20.5208 0.00110045 -0.0116879 0.00611859
147 1 -5.1771 -4.25498 20.6271 0.00620679 0.0116813 0.00401245
148 1 -4.50334 -3.00671 20.5904 -0.00391171 -0.00291675 0.000233616
149 1 -5.22422 -1.78244 20.6008 0.00286654 -0.00384586 -0.000313085
164 1 -3.13706 -3.04776 20.3668 -0.00192215 -0.00642539 -0.004331
174 1 -2.42298 -4.34819 20.2907 0.000926252 -0.00278235 0.00314106
150 1 -4.46391 -0.569776 20.5237 0.00568412 0.000313699 -0.00463572
187 1 -1.03244 -4.31784 20.0825 -0.00324026 0.000935859 -0.00382802
165 1 -3.0892 -0.634725 20.3234 -0.0016156 -0.0067544 0.00466779
175 1 -2.41108 -1.84302 20.342 0.00592911 -0.00356966 -5.53703e-05
188 1 -0.325471 -3.09152 19.9785 -0.00183526 0.00149694 0.000195898
189 1 -0.977812 -1.88793 20.1632 -0.0110336 -0.00192899 -0.00757466
190 1 -0.324335 -0.648228 20.0876 0.000991065 -0.00771072 -0.000967284
203 1 1.15596 -5.51817 19.9046 -0.0015173 0.00180309 -0.0162739
226 1 3.96873 -5.65 19.977 0.000584454 0.00300781 0.0154056
243 1 5.42001 -5.55519 20.1199 0.000763577 0.00424024 0.0157104
254 1 6.12775 -4.31895 20.0849 0.000335365 -0.00606445 0.00705144
255 1 5.99682 -1.85844 19.9147 0.00254676 0.00192379 0.000232075
227 1 3.32941 -4.43484 19.8614 -0.0061744 -0.00514257 0.0021094
244 1 5.38445 -3.1385 20.0226 -0.00174484 -0.0064588 0.0101682
214 1 1.92955 -4.34644 19.8534 0.00218221 0.00120954 -0.0137707
228 1 3.96319 -3.18187 19.9127 -0.00491833 0.00962264 0.00478529
245 1 5.25486 -0.647108 19.8248 0.0074226 -0.000794874 -0.00739602
229 1 3.21812 -1.93032 19.8209 -0.00178661 -0.00502432 0.0067166
230 1 3.82741 -0.686202 19.6936 -0.000271019 0.000432277 0.00289369
204 1 1.08005 -3.16053 19.905 -0.00254047 -0.00319738 -0.00582254
215 1 1.78776 -1.93332 19.9346 -0.0101001 0.0072195 0.00319884
205 1 1.09078 -0.719164 20.0019 -0.00565688 0.00188298 0.00177449
269 1 7.44572 -1.83489 20.0859 0.000821102 0.00435518 0.00256131
267 1 7.56537 -4.21344 20.3319 0.00331399 -0.00169869 0.0158427
266 1 8.27896 -5.42565 20.3532 -0.00113477 -0.00116655 0.00339557
268 1 8.27267 -2.98706 20.223 -0.00465647 -9.71823e-05 0.00826238
270 1 8.26088 -0.657597 20.0108 0.0072673 0.00173176 0.00501169
283 1 9.71144 -5.482 20.3322 -0.00204959 0.00902362 0.0147039
284 1 9.72713 -3.04809 20.2018 -0.00446503 -0.00534978 0.00443007
285 1 9.72124 -0.640255 20.1203 0.00036779 -0.00260308 0.00534636
294 1 10.5045 -4.31438 20.287 0.00205965 0.000583656 0.00451931
295 1 10.5036 -1.85688 20.1199 0.000928468 -0.00398488 0.0125175
306 1 12.6496 -5.55341 19.9999 0 0 0
307 1 11.9041 -4.32686 19.9999 0 0 0
308 1 12.647 -3.09734 19.9999 0 0 0
309 1 11.9037 -1.86828 19.9999 0 0 0
310 1 12.6457 -0.637745 19.9999 0 0 0
323 1 14.0539 -5.56516 19.9999 0 0 0
324 1 14.0472 -3.10129 19.9999 0 0 0
325 1 14.0438 -0.638188 19.9999 0 0 0
71 1 -13.6826 0.591886 19.9999 0 0 0
72 1 -13.0424 1.82079 19.9999 0 0 0
73 1 -13.6895 3.04359 19.9999 0 0 0
74 1 -13.0413 4.27397 19.9999 0 0 0
75 1 -13.7195 5.48914 19.9999 0 0 0
86 1 -11.5623 1.82169 19.9999 0 0 0
87 1 -11.5564 4.27485 19.9999 0 0 0
96 1 -10.8693 0.598401 19.9751 0.00319628 0.00348319 -0.00898632
97 1 -10.8896 3.03861 19.8553 0.00240058 0.00167324 -0.00493919
98 1 -10.8988 5.49542 19.9759 -0.00203909 -0.00119543 -0.000246937
111 1 -9.46739 0.582967 20.0168 0.00149802 -0.00954114 -0.00832725
112 1 -8.78958 1.83675 20.1618 0.00388381 0.00679718 -0.017389
113 1 -9.47704 3.03015 20.0758 0.0086217 0.00167346 -0.0079594
114 1 -8.73566 4.29588 20.0892 0.00796297 -0.0011593 0.00386138
115 1 -9.42638 5.528 20.1414 -0.00275277 0.0049255 0.00219181
126 1 -7.40955 1.80184 20.3785 -0.00073983 0.00400426 -0.013093
127 1 -7.37027 4.19324 20.4958 -8.42496e-05 0.0107965 -0.00148151
138 1 -6.66175 5.39503 20.4742 0.00310895 0.00645689 0.0054791
195 1 -0.961803 5.46614 20.3117 -0.000920304 0.000535788 -0.00577907
155 1 -5.24717 5.3736 20.7089 -0.00228021 0.00171378 0.00869559
178 1 -2.33051 5.46399 20.6351 0.000218542 0.0094769 9.0846e-05
137 1 -6.63297 2.99425 20.6062 -0.00365009 0.012038 -0.00841238
153 1 -5.2224 2.97285 20.7365 0.00583904 0.0159881 -0.00838053
154 1 -4.49683 4.22335 20.8397 -0.00303459 -5.17324e-05 0.0106267
136 1 -6.68538 0.587101 20.5688 -0.00439763 -0.00524157 -0.00765973
151 1 -5.23718 0.579106 20.6288 0.00869429 0.00390052 0.00728517
167 1 -3.07244 4.27815 20.6628 -0.00603502 0.00372602 -0.00343853
152 1 -4.48003 1.78566 20.6187 -0.00148421 0.00577589 -0.00618243
177 1 -2.36717 3.08145 20.447 0.00592533 0.0030784 0.00303517
194 1 -0.248451 4.26043 20.0736 -0.00183839 -0.000582493 -0.00564134
166 1 -3.08393 1.80511 20.4633 -0.00135913 0.0055537 -2.92953e-06
176 1 -2.35964 0.602448 20.3135 -0.00377431 0.00273554 0.00618043
193 1 -1.04675 3.05624 20.1788 0.00446313 0.00850229 -0.000155608
191 1 -1.00588 0.585778 20.2568 0.00465693 0.00512361 0.00119527
192 1 -0.335702 1.85467 20.1492 -0.000353837 0.00444677 0.00755638
218 1 1.87739 5.54226 20.0052 -0.000907252 -0.00388279 -0.00625413
235 1 3.30632 5.49621 20.2383 -0.0125752 -0.00305187 0.0020515
247 1 5.49763 4.20406 20.2593 -0.0103589 0.00856231 0.00903415
257 1 6.18468 2.9298 20.1248 -0.00520047 0.00222768 0.00298859
258 1 6.20075 5.40823 20.3216 -0.00685496 0.00670018 0.00103447
234 1 4.05066 4.23108 20.2861 -0.00733817 -0.000153487 0.00906425
256 1 6.07098 0.528878 19.9384 0.00822445 0.00268611 0.000468615
246 1 5.36917 1.75953 20.0697 -0.00332174 0.0056685 0.00479212
233 1 3.26526 3.0603 20.0401 -0.00160391 0.00220458 0.00452402
231 1 3.12934 0.580631 19.7794 -0.000816883 -6.38308e-05 -0.00263133
232 1 3.9318 1.78718 19.9885 -0.00794063 -0.000189814 -0.0011118
207 1 1.1597 4.27263 19.9695 0.000171598 -0.013432 -0.00810897
217 1 1.85566 3.06277 20.1308 -0.00193356 0.00108254 0.00666231
206 1 1.09616 1.83776 20.1584 0.00272098 0.00421327 -0.00348248
216 1 1.78766 0.586671 19.9647 -0.0079071 -0.00635966 0.00144843
271 1 7.51418 0.5394 19.9991 3.68505e-05 -0.00243046 0.00434981
275 1 7.63822 5.44102 20.3995 -0.00389173 0.00262311 -0.000756731
273 1 7.62471 2.96729 20.2606 0.0091224 -0.004961 0.0230714
272 1 8.29102 1.78138 20.0624 0.00305923 0.00423375 0.00609757
274 1 8.38435 4.23019 20.4137 -0.00671587 -0.00475774 0.0120773
286 1 9.72693 1.83048 20.1031 0.000655734 0.00534091 -0.00208089
287 1 9.78661 4.29217 20.3787 -0.00693786 0.000577302 0.0111356
296 1 10.4661 0.568919 20.0483 -0.00347743 -0.00597129 -0.000714943
297 1 10.5055 3.04765 20.2435 -0.00216695 0.000899093 0.00196764
298 1 10.4942 5.54899 20.216 -0.00881885 0.00902816 0.00428739
311 1 11.9034 0.592385 19.9999 0 0 0
312 1 12.6457 1.82255 19.9999 0 0 0
313 1 11.9038 3.05326 19.9999 0 0 0
314 1 12.6466 4.28301 19.9999 0 0 0
315 1 11.9041 5.51379 19.9999 0 0 0
326 1 14.0439 1.82305 19.9999 0 0 0
327 1 14.0468 4.28589 19.9999 0 0 0
76 1 -13.0678 6.73987 19.9999 0 0 0
77 1 -13.743 7.99662 19.9999 0 0 0
78 1 -13.076 9.22053 19.9999 0 0 0
79 1 -13.6781 10.6114 19.9999 0 0 0
80 1 -13.0646 11.9529 19.9999 0 0 0
88 1 -11.5395 6.7281 19.9999 0 0 0
89 1 -11.5535 9.18478 19.9999 0 0 0
90 1 -11.7099 11.6077 19.9999 0 0 0
99 1 -10.7952 7.93459 20.0081 0.011283 -0.00308597 0.00142129
100 1 -10.9027 10.4758 19.9999 0 0 0
116 1 -8.74706 6.74218 20.2844 0.0107241 0.0109364 -0.00157036
117 1 -9.36665 8.00491 20.1915 0.00876316 0.0139328 0.00897007
118 1 -8.6379 9.25173 20.2527 -0.00713181 -0.003681 -0.00589262
119 1 -9.37207 10.4804 19.9999 0 0 0
120 1 -8.62688 11.6228 19.9999 0 0 0
130 1 -7.38724 11.6024 19.9999 0 0 0
129 1 -7.22238 9.14576 20.2886 0.00611451 -0.00292118 -0.00741694
128 1 -7.31283 6.67828 20.4497 0.0075706 0.00452034 0.00110057
139 1 -6.63501 7.91587 20.463 0.00917827 0.00454328 0.00531148
140 1 -6.60892 10.469 19.9999 0 0 0
156 1 -4.59519 6.63794 20.6519 -0.000186515 0.00658203 0.0116583
157 1 -5.19114 7.89306 20.4094 -0.00635964 0.00740028 -0.00834652
158 1 -4.47424 9.12651 20.2213 0.00350086 0.00146588 -0.00324885
159 1 -5.14663 10.4689 19.9999 0 0 0
160 1 -4.36691 11.6023 19.9999 0 0 0
168 1 -3.13242 6.69331 20.6356 0.0111576 0.016102 0.00778354
169 1 -3.04344 9.20025 20.2549 0.00858298 -0.00797148 0.00414745
170 1 -3.12269 11.6018 19.9999 0 0 0
179 1 -2.44163 7.89465 20.3718 0.00425743 0.00436277 -0.00136267
180 1 -2.34103 10.4689 19.9999 0 0 0
196 1 -0.319169 6.72674 20.1398 0.00830104 -0.00379253 -0.0121735
197 1 -1.03509 7.90428 20.2127 -0.0103207 0.00777227 -0.00406983
198 1 -0.235204 9.1555 20.1434 0.00138969 -0.00377075 -0.00196382
199 1 -0.876963 10.4688 19.9999 0 0 0
200 1 -0.0953724 11.6018 19.9999 0 0 0
208 1 1.11223 6.73508 20.0827 0.00238475 -0.00134299 -0.0184383
209 1 1.18584 9.23121 20.0901 0.000388629 0.000298738 0.00480744
210 1 1.14924 11.6018 19.9999 0 0 0
219 1 1.90598 7.98504 20.1814 -0.00129293 -0.00262301 0.000315151
220 1 1.93091 10.4688 19.9999 0 0 0
236 1 4.05496 6.67468 20.2323 0.00144122 0.00156324 0.00584666
237 1 3.36527 7.9759 20.2282 -0.000997612 0.00651041 -0.0106958
238 1 4.14076 9.16951 20.166 0.00877408 -0.00245828 0.00269537
239 1 3.39506 10.4687 19.9999 0 0 0
240 1 4.17656 11.6018 19.9999 0 0 0
248 1 5.49133 6.65491 20.3353 -0.00158556 0.00232386 0.0105583
249 1 5.5572 9.13905 20.1131 -0.0011298 0.00237341 -0.00374834
250 1 5.4212 11.6017 19.9999 0 0 0
259 1 6.1859 7.87401 20.1242 0.000549163 -0.00248305 0.00716067
260 1 6.20335 10.4685 19.9999 0 0 0
277 1 7.62182 7.91357 20.1288 0.00495922 0.00163578 0.00142337
276 1 8.33274 6.68675 20.3265 -0.00740265 0.00340045 0.00565415
278 1 8.35768 9.139 20.0758 0.000186754 -0.00634647 0.0020726
279 1 7.66711 10.4687 19.9999 0 0 0
280 1 8.44529 11.6024 19.9999 0 0 0
288 1 9.75178 6.75031 20.2852 0.00259141 -0.00511471 0.0162215
289 1 9.76096 9.2049 20.0801 0.00174513 0.000260236 0.00958475
290 1 9.6873 11.6101 19.9999 0 0 0
299 1 10.4914 7.99855 20.1374 -0.0029768 0.00156867 -0.00429149
300 1 10.4752 10.4755 19.9999 0 0 0
316 1 12.6473 6.74288 19.9999 0 0 0
317 1 11.9051 7.97805 19.9999 0 0 0
318 1 12.6583 9.19198 19.9999 0 0 0
319 1 11.9246 10.4937 19.9999 0 0 0
320 1 12.7709 11.5297 19.9999 0 0 0
328 1 14.0456 6.75188 19.9999 0 0 0
329 1 14.0237 9.17042 19.9999 0 0 0
330 1 13.9415 11.792 19.9999 0 0 0
