ITEM: TIMESTEP
54400
ITEM: NUMBER OF ATOMS
330
ITEM: BOX BOUNDS pp pp pp
-1.4715758017245314e+01 1.5057610017245315e+01
-1.2710055654020760e+01 1.2664508654020761e+01
-5.0001035148846022e+01 1.0000103514884636e+02
ITEM: ATOMS id type x y z vx vy vz
8 1 4.0122 -0.682846 -20.3355 0.000388405 0.00133595 -0.0142971
7 1 5.39376 -0.683654 -19.9959 -0.00307381 0.00526995 -0.021026
44 1 1.99549 -1.19951 -19.4051 0.00323848 0.00441022 -0.0205763
28 1 3.19075 -1.78879 -19.9011 0.00502116 0.00621396 -0.0217283
26 1 5.91597 -1.82595 -19.2822 2.24181e-05 0.000371008 -0.0216103
52 1 3.75376 -2.85695 -19.1153 -4.18255e-05 0.0017071 -0.0190675
20 1 1.28443 -1.68183 -18.297 0.0055102 0.000880781 -0.0105861
40 1 6.84655 -1.25404 -18.3503 0.00593568 -0.00593495 -0.0181693
50 1 5.182 -2.97757 -18.8513 0.00442131 0.00119188 -0.0189432
4 1 0.734711 -0.768861 -17.3151 0.000306144 0.00292165 -0.0151981
60 1 1.92206 -2.73153 -17.5572 0.00489511 -0.000436221 -0.0217922
36 1 3.09561 -3.33789 -17.9489 0.000474334 5.23845e-05 -0.0180498
35 1 5.31515 -3.44374 -17.5005 0.00613501 -0.00470666 -0.0122991
16 1 7.03144 -1.72826 -17.0326 0.00590505 -0.000572838 -0.0126029
12 1 4.02572 -3.70764 -16.9356 0.00386027 -0.00917195 -0.0134527
59 1 6.29579 -2.87674 -16.6021 0.0060821 0.00501831 -0.0152392
19 1 0.916517 -1.32505 -16.0068 -0.00166153 -0.0056477 -0.0162626
58 1 1.65405 -2.53028 -16.1561 -0.00319797 0.000771449 -0.0179908
2 1 7.30972 -0.883551 -15.9877 0.00252252 0.00464502 -0.014007
11 1 3.82255 -3.53597 -15.5566 0.00576123 1.20423e-05 -0.0247821
57 1 6.11333 -2.6551 -15.2138 0.00240312 0.00255111 -0.0171699
43 1 1.17358 -0.370153 -14.9892 0.000803143 0.00140558 -0.0177323
34 1 2.60393 -2.90038 -15.1437 0.00238338 0.00778202 -0.0170446
15 1 6.72284 -1.43771 -14.8147 -0.00701801 -0.00480489 -0.0200115
33 1 4.8513 -2.97333 -14.6985 0.00339836 -0.00165313 -0.0124463
27 1 3.31133 0.545853 -20.1037 0.00868992 0.00490179 -0.019784
51 1 4.00312 1.79211 -19.7723 0.00697346 -0.00361931 -0.0209163
42 1 2.00893 0.229138 -19.564 0.00369449 -0.000458511 -0.0190831
25 1 6.0562 0.505868 -19.5653 0.00186319 0.00293906 -0.0166522
49 1 5.3907 1.75294 -19.4382 -0.00319152 0.000288509 -0.0183775
38 1 6.95026 0.180362 -18.5364 -0.00554156 -0.000488618 -0.019489
32 1 3.38658 2.71882 -18.8572 0.00125975 0.00434776 -0.0226495
18 1 1.50256 1.10835 -18.5677 0.00688153 0.0011271 -0.0140293
56 1 2.08839 2.38291 -18.2585 0.00303224 -0.00407503 -0.0227809
31 1 5.62343 2.63353 -18.3318 -0.000655771 -0.0119849 -0.0175814
10 1 4.39045 3.23984 -17.9476 -0.000416627 0.00272737 -0.00847575
3 1 0.741763 0.654485 -17.4873 0.00246361 0.00460257 -0.0189115
14 1 7.2719 1.02639 -17.4561 0.00333657 0.00220252 -0.0155361
55 1 6.61526 2.29494 -17.3406 0.000530863 -0.00111612 -0.0249021
17 1 0.95088 1.52028 -16.4408 0.00120813 0.000321872 -0.0131909
54 1 1.77543 2.59081 -16.8917 0.00553027 0.00626586 -0.0128084
9 1 4.04239 3.51373 -16.5703 0.00560076 -0.0030063 -0.0208029
1 1 7.45897 0.515068 -16.1403 -0.00608178 0.00196157 -0.021728
53 1 6.31653 2.55103 -15.9915 0.00123268 0.00253859 -0.016873
30 1 2.78073 3.20684 -16.0629 0.00998542 -0.00239055 -0.0187328
29 1 5.10362 3.21659 -15.6014 -0.000399734 -0.0049868 -0.0160672
13 1 6.90578 1.44275 -15.2389 0.00201413 -0.00501406 -0.0147552
41 1 1.16699 1.06062 -15.1203 0.00252864 0.00189514 -0.0206242
47 1 3.01877 2.69842 -14.7373 -0.00211826 -0.00494421 -0.0205358
45 1 4.41795 2.68312 -14.4855 0.00159333 0.00323734 -0.0155224
39 1 6.22515 -0.47716 -13.8778 -0.0117001 -0.00485166 -0.0177214
24 1 2.22244 -0.715412 -14.0607 0.00638327 -0.00947033 -0.0187123
48 1 2.8873 -1.97601 -14.1588 0.00442211 -0.000811442 -0.0167265
46 1 4.2597 -2.02223 -13.7556 0.00806644 0.00481512 -0.0140528
22 1 4.88957 -0.784256 -13.4096 0.00632694 0.00605709 -0.0169362
23 1 2.22927 1.61222 -14.2665 0.00408817 -0.00107105 -0.0165719
37 1 6.28438 0.917953 -14.1244 -0.00179029 -0.00125207 -0.019108
21 1 4.99255 1.5066 -13.8651 0.00114695 -0.00319499 -0.0152525
6 1 2.84634 0.477159 -13.6779 0.00453447 -0.00796038 -0.0219688
5 1 4.18251 0.433977 -13.3634 -0.00106669 0.00554565 -0.0262994
61 1 -13.6674 -11.9461 19.9999 0 0 0
62 1 -13.1228 -10.6724 19.9999 0 0 0
63 1 -13.7825 -9.34696 19.9999 0 0 0
64 1 -13.0772 -8.00396 19.9999 0 0 0
65 1 -13.7542 -6.79742 19.9999 0 0 0
81 1 -11.507 -10.5408 19.9999 0 0 0
82 1 -11.5331 -8.01671 19.9999 0 0 0
91 1 -10.7591 -11.6424 19.9999 0 0 0
92 1 -10.8634 -9.22786 20.024 0.0004281 0.00234006 -5.19208e-05
93 1 -10.8021 -6.76608 20.1353 -0.00209562 -0.00609092 0.00571924
101 1 -9.52473 -11.6468 19.9999 0 0 0
102 1 -8.74136 -10.5124 19.9999 0 0 0
103 1 -9.405 -9.22628 20.1668 0.00382792 -0.00483189 -0.00220557
104 1 -8.62897 -8.04336 20.3083 -0.00975474 0.00650937 -0.00131717
105 1 -9.34359 -6.77672 20.2219 -0.00298294 0.00249948 0.00241684
121 1 -7.27873 -10.5146 19.9999 0 0 0
122 1 -7.19931 -8.00998 20.2773 0.00523891 -0.0147485 0.00363251
131 1 -6.50232 -11.6488 19.9999 0 0 0
132 1 -6.49881 -9.19624 20.1027 0.00202727 -0.00235116 0.00252349
133 1 -6.44222 -6.81185 20.0648 -0.00353156 0.00280511 0.00689198
141 1 -5.25854 -11.6473 19.9999 0 0 0
142 1 -4.47674 -10.5145 19.9999 0 0 0
143 1 -5.12961 -9.18726 20.0536 -0.00813615 -0.00689117 -0.00335249
144 1 -4.40859 -7.99661 19.9817 -0.00582479 -0.0117501 -0.00443099
145 1 -5.09322 -6.79582 19.8403 -0.0114301 0.000479204 0.00039698
161 1 -3.01281 -10.5144 19.9999 0 0 0
162 1 -2.98229 -8.1036 19.8329 -0.00814882 0.000635093 -0.00602923
171 1 -2.23133 -11.6474 19.9999 0 0 0
172 1 -2.26388 -9.28357 19.877 -0.00481023 -0.00136564 -0.0049164
173 1 -2.27118 -6.89291 19.7778 -0.00841361 -0.00413422 0.00345816
181 1 -0.986751 -11.6474 19.9999 0 0 0
182 1 -0.205108 -10.5143 19.9999 0 0 0
183 1 -0.908638 -9.24441 19.8609 0.000325766 -0.00103316 -0.000852227
184 1 -0.140987 -8.02497 19.8797 -0.000290802 -0.00177905 0.00327172
185 1 -0.859356 -6.77112 19.7791 0.00390706 0.0027724 -0.010475
201 1 1.25901 -10.5143 19.9999 0 0 0
202 1 1.29997 -7.91853 19.8648 -0.00930822 -0.00542215 0.00419585
211 1 2.0406 -11.6474 19.9999 0 0 0
212 1 1.9476 -9.17418 19.9453 0.00938181 -0.0122411 -0.0133782
213 1 2.00886 -6.69975 19.9757 0.0146445 0.00613971 0.00974723
221 1 3.28523 -11.6473 19.9999 0 0 0
222 1 4.06705 -10.5143 19.9999 0 0 0
223 1 3.36415 -9.22034 20.1945 -0.000842296 0.00482204 -0.00633207
224 1 4.02901 -7.9837 20.2761 0.00563183 0.00127271 -0.00214836
225 1 3.38034 -6.73626 20.1235 0.00374707 -0.00744658 0.00470021
241 1 5.53108 -10.5143 19.9999 0 0 0
242 1 5.4381 -8.04177 20.3613 0.0141044 0.000941274 -0.00256611
251 1 6.31174 -11.6474 19.9999 0 0 0
252 1 6.18403 -9.22136 20.1271 -0.00302921 -0.0060141 0.00910695
253 1 6.16904 -6.82161 20.2531 -0.00245242 -0.00489848 0.00575885
261 1 7.55524 -11.6498 19.9999 0 0 0
265 1 7.62072 -6.77799 20.3574 0.0134151 0.00606723 0.0179193
263 1 7.63632 -9.20148 20.1725 0.00608065 1.56823e-05 0.00709297
262 1 8.33779 -10.5154 19.9999 0 0 0
264 1 8.32846 -8.04143 20.2339 0.00358063 0.00166979 0.00620527
281 1 9.79556 -10.5245 19.9999 0 0 0
282 1 9.75735 -8.02416 20.14 -0.00512378 0.00252271 0.0138797
291 1 10.5816 -11.6418 19.9999 0 0 0
292 1 10.5055 -9.18722 19.9751 -0.00459798 0.0048686 0.00673798
293 1 10.5038 -6.79719 20.0304 -0.00647385 0.0022048 0.011505
301 1 11.8019 -11.7522 19.9999 0 0 0
302 1 12.7161 -10.5156 19.9999 0 0 0
303 1 11.8934 -9.22642 19.9999 0 0 0
304 1 12.655 -8.00627 19.9999 0 0 0
305 1 11.8992 -6.77596 19.9999 0 0 0
321 1 14.087 -10.4984 19.9999 0 0 0
322 1 14.0714 -8.01298 19.9999 0 0 0
66 1 -13.0658 -5.54976 19.9999 0 0 0
67 1 -13.7179 -4.30197 19.9999 0 0 0
68 1 -13.0406 -3.0891 19.9999 0 0 0
69 1 -13.6883 -1.86008 19.9999 0 0 0
70 1 -13.0424 -0.636745 19.9999 0 0 0
83 1 -11.5387 -5.54743 19.9999 0 0 0
84 1 -11.5566 -3.09089 19.9999 0 0 0
85 1 -11.5625 -0.637245 19.9999 0 0 0
94 1 -10.807 -4.3395 20.0019 -0.00145991 -0.00119554 0.00982094
95 1 -10.8413 -1.87331 20.0867 0.00907748 0.00515154 0.00280727
106 1 -8.60434 -5.5915 20.1735 -0.00349027 -0.0019306 0.00328654
107 1 -9.34704 -4.37294 20.1278 -0.00222014 0.00271714 0.00438363
108 1 -8.64928 -3.15659 20.2054 0.00463016 -0.0026497 0.00487104
109 1 -9.37961 -1.85941 20.1205 0.00594561 -0.00109461 -0.0086782
110 1 -8.72259 -0.623516 20.0006 0.0106693 0.00417402 -0.0135218
125 1 -7.25969 -0.615589 19.817 0.00256935 -0.00770916 -0.0122943
123 1 -7.18387 -5.60872 20.0272 -0.00326131 0.0126302 0.0144877
124 1 -7.2254 -3.13977 20.0564 0.000400324 -0.00074805 0.00360644
186 1 -0.149959 -5.54858 19.9717 0.00734561 0.00626773 -0.00457415
134 1 -6.44986 -4.36535 19.9088 0.00428262 0.000644437 0.00429962
163 1 -2.97763 -5.64186 19.6027 0.0008452 0.000645296 -0.000790935
135 1 -6.54004 -1.86243 19.7478 0.00213281 0.00574315 -0.00645024
146 1 -4.38437 -5.58674 19.5996 -0.00131979 -0.00897266 -0.00506034
147 1 -5.05779 -4.36115 19.5411 0.00112229 0.000884231 0.00352997
148 1 -4.30462 -3.0801 19.4574 0.00232403 0.00309666 -0.000638412
149 1 -5.15237 -1.88012 19.385 0.00197045 -0.00935926 0.00472567
164 1 -2.91495 -3.09343 19.3177 -0.00226381 -0.00620726 0.00320314
174 1 -2.27466 -4.39368 19.573 -0.00205606 -0.00679257 -0.00685726
150 1 -4.48602 -0.617555 19.1682 -0.00304661 -0.00293964 -0.00281512
187 1 -0.861469 -4.37149 19.7668 0.0158946 -0.00741867 -0.00459365
165 1 -3.05637 -0.61085 19.1554 -0.00540863 0.00196654 -0.000750513
175 1 -2.21096 -1.81727 19.267 0.00114771 0.000381023 0.00898927
188 1 -0.114892 -3.14426 19.7516 0.00647109 0.00399187 -0.00267518
189 1 -0.844857 -1.89712 19.5771 -0.000883529 -0.000469616 0.00228511
190 1 -0.223827 -0.600835 19.8197 0.00744086 -0.00590616 -0.00283132
203 1 1.27466 -5.45578 20.0599 -0.00814412 0.00168688 -0.00494752
226 1 4.13629 -5.52048 20.2317 -0.00999849 0.0060831 -0.00387152
243 1 5.53006 -5.54493 20.2926 0.00129467 0.00883662 0.00781692
254 1 6.23546 -4.32349 20.2189 -0.00281252 -0.0012104 0.00488129
255 1 6.14491 -1.85151 20.2063 -0.00121446 0.00354351 0.00582893
227 1 3.44229 -4.26644 20.1865 0.000588556 -0.000621454 -0.00437359
244 1 5.51201 -3.08415 20.1156 0.00700667 0.000567361 0.000615578
214 1 2.01853 -4.23836 20.1613 0.00677944 -0.00622767 -0.00670529
228 1 4.12811 -3.03761 20.0835 0.00100689 -0.00180597 -0.00432447
245 1 5.49344 -0.57871 20.1276 0.005454 0.0120917 0.0190722
229 1 3.37056 -1.78182 20.0244 0.00596747 -0.00281576 0.0123635
230 1 4.04204 -0.544643 20.0263 0.00202342 0.00791813 0.000471693
204 1 1.24109 -2.98166 20.0562 0.00144432 0.00314483 -0.0065126
215 1 1.9875 -1.80123 20.0703 0.00256942 -0.0089044 0.0135008
205 1 1.20585 -0.611128 19.9404 -0.00563739 0.00405322 0.00717129
267 1 7.61651 -4.37337 20.2034 0.00528262 -0.00516038 0.00955169
269 1 7.62372 -1.91618 20.2935 0.0120685 0.00597513 0.000334834
266 1 8.38127 -5.57325 20.2537 0.00883048 -0.00588616 0.0111186
268 1 8.33203 -3.15043 20.1114 -0.0078198 -0.00266508 0.00685045
270 1 8.28841 -0.682596 20.2274 0.0084862 0.00527987 0.0068515
283 1 9.77752 -5.60267 20.1423 -0.00722997 -0.00548794 0.00985604
284 1 9.77619 -3.11443 20.002 0.00535387 0.00439911 0.00481081
285 1 9.73125 -0.646323 20.083 0.00891059 -0.00197064 0.0066801
294 1 10.4925 -4.34907 20.0088 -0.00493386 0.00503513 0.00801484
295 1 10.5062 -1.88769 19.921 -0.000142882 0.0114268 -0.00463989
306 1 12.6496 -5.55341 19.9999 0 0 0
307 1 11.9041 -4.32686 19.9999 0 0 0
308 1 12.647 -3.09734 19.9999 0 0 0
309 1 11.9037 -1.86828 19.9999 0 0 0
310 1 12.6457 -0.637745 19.9999 0 0 0
323 1 14.0539 -5.56516 19.9999 0 0 0
324 1 14.0472 -3.10129 19.9999 0 0 0
325 1 14.0438 -0.638188 19.9999 0 0 0
71 1 -13.6826 0.591886 19.9999 0 0 0
72 1 -13.0424 1.82079 19.9999 0 0 0
73 1 -13.6895 3.04359 19.9999 0 0 0
74 1 -13.0413 4.27397 19.9999 0 0 0
75 1 -13.7195 5.48914 19.9999 0 0 0
86 1 -11.5623 1.82169 19.9999 0 0 0
87 1 -11.5564 4.27485 19.9999 0 0 0
96 1 -10.9001 0.577422 20.0244 -0.00467554 -0.0062197 -0.00954238
97 1 -10.8983 3.04728 19.9941 0.00206318 0.00275381 0.00236397
98 1 -10.8392 5.4786 20.1207 0.00713281 0.00247643 0.00115849
111 1 -9.41762 0.644633 19.9874 0.00481796 -0.0148429 -0.0109619
112 1 -8.72528 1.86093 20.0626 -0.000658795 0.00715346 -0.00609796
113 1 -9.43213 3.13364 20.166 0.00534773 -0.00695827 0.00303378
114 1 -8.70031 4.32131 20.1399 0.00179553 -0.0115098 0.0160114
115 1 -9.40904 5.55867 20.1543 0.00810755 -0.00146296 0.00822279
127 1 -7.23503 4.31244 20.0614 -0.00428842 0.00114297 0.00807583
126 1 -7.30382 1.87402 19.8575 0.00604985 0.000921085 -0.01619
138 1 -6.51403 5.55305 19.9237 0.0112442 -0.000498485 0.00679444
195 1 -0.83246 5.52325 20.0332 -0.00516721 0.000120057 -0.00845879
155 1 -5.09311 5.60977 19.6724 -0.00152171 0.00924624 -0.0058229
178 1 -2.31523 5.55212 19.8282 0.00491948 -0.0006353 -0.00976835
137 1 -6.57067 3.10998 19.7947 0.00797312 0.000548796 0.0068494
153 1 -5.17395 3.08195 19.5672 0.00453005 0.00272174 0.0115086
154 1 -4.43501 4.31583 19.5437 0.00264334 0.00491469 0.00726296
136 1 -6.63882 0.643259 19.6347 -0.00161934 0.000842186 -0.0151597
151 1 -5.22827 0.67587 19.3612 0.00514391 0.00181535 -0.0037977
167 1 -3.02664 4.28209 19.6011 0.00326039 0.00309108 -0.0114581
152 1 -4.48781 1.88571 19.3525 0.00254535 0.00426859 -0.00104634
177 1 -2.29346 3.07123 19.4628 0.00823902 -0.00084961 -0.00300033
194 1 -0.155911 4.29025 19.7362 -0.0032653 0.000789026 -0.0155481
166 1 -3.04002 1.87641 19.3412 -0.011055 0.00242574 0.00922243
176 1 -2.34945 0.644889 19.2615 -0.00563208 -0.000745344 0.00128259
193 1 -0.868201 3.03629 19.6611 0.00115806 0.00273595 -0.00797156
191 1 -0.921265 0.630207 19.6089 0.00138311 -0.00317808 0.0100559
192 1 -0.186272 1.7742 19.6398 0.0159619 -0.00167961 0.00234214
218 1 1.99186 5.46081 20.0226 0.000963168 0.00108215 -0.0117147
235 1 3.41076 5.46875 20.2588 0.000907396 -0.00850171 0.00879608
247 1 5.51709 4.1941 20.354 0.00998529 0.00154151 0.00287328
257 1 6.25237 2.98139 20.309 0.00621285 -0.00186108 -0.00281253
258 1 6.19587 5.46412 20.5137 0.00236577 0.000604078 0.0112847
234 1 4.0434 4.24792 20.4145 0.0102541 -0.00245335 0.00372511
256 1 6.22848 0.581639 20.0469 0.0121408 -0.00842968 -0.00231973
246 1 5.55341 1.79041 20.0945 0.00524512 -0.00437831 0.00861763
233 1 3.40673 3.00647 20.2613 0.00798172 0.00223245 -0.0041642
231 1 3.32984 0.638595 19.9921 0.00554336 0.00235702 0.0113544
232 1 4.09238 1.81355 20.1087 0.0091663 0.00232288 0.00177473
207 1 1.19936 4.25599 19.9049 0.00188861 0.000839547 -0.00426518
217 1 1.95646 3.06157 20.0922 0.00665535 0.0055337 -0.0016594
206 1 1.20548 1.88174 20.0102 0.00277187 0.000642597 0.00978197
216 1 1.90371 0.649382 20.0463 -0.000922763 -0.00144215 0.00497681
271 1 7.65785 0.574911 20.2853 0.000278655 0.00455693 -0.00324606
275 1 7.6032 5.44146 20.2942 -0.000882326 0.00113051 0.0179591
273 1 7.72588 2.99879 20.2644 0.00504997 -0.00636762 0.010913
272 1 8.43892 1.76654 20.3917 -0.00912319 0.00251021 0.00746321
274 1 8.3938 4.2409 20.1737 0.00291003 0.00414835 0.0156179
286 1 9.80769 1.82963 20.2162 0.00643007 0.00294249 0.00483854
287 1 9.8111 4.29866 20.0274 -0.00439121 -0.00372733 0.00676613
296 1 10.4524 0.582702 20.0748 -0.00208542 0.00492209 -0.000830085
297 1 10.5023 3.06465 20.0412 -0.00350433 0.00378141 0.0056654
298 1 10.4862 5.57233 20.0823 -0.000125971 -0.00179164 0.00824188
311 1 11.9034 0.592385 19.9999 0 0 0
312 1 12.6457 1.82255 19.9999 0 0 0
313 1 11.9038 3.05326 19.9999 0 0 0
314 1 12.6466 4.28301 19.9999 0 0 0
315 1 11.9041 5.51379 19.9999 0 0 0
326 1 14.0439 1.82305 19.9999 0 0 0
327 1 14.0468 4.28589 19.9999 0 0 0
76 1 -13.0678 6.73987 19.9999 0 0 0
77 1 -13.743 7.99662 19.9999 0 0 0
78 1 -13.076 9.22053 19.9999 0 0 0
79 1 -13.6781 10.6114 19.9999 0 0 0
80 1 -13.0646 11.9529 19.9999 0 0 0
88 1 -11.5395 6.7281 19.9999 0 0 0
89 1 -11.5535 9.18478 19.9999 0 0 0
90 1 -11.7099 11.6077 19.9999 0 0 0
99 1 -10.8438 7.95331 20.0986 -0.00556536 -0.00361989 -0.00446784
100 1 -10.9027 10.4758 19.9999 0 0 0
116 1 -8.64145 6.77722 20.2616 -0.0103218 -0.0116214 0.00296979
117 1 -9.36185 7.98116 20.1613 0.00497319 -0.00235133 -0.00184487
118 1 -8.72421 9.24009 20.0389 0.00824237 0.00602835 -0.00991231
119 1 -9.37207 10.4804 19.9999 0 0 0
120 1 -8.62688 11.6228 19.9999 0 0 0
130 1 -7.38724 11.6024 19.9999 0 0 0
129 1 -7.29857 9.244 20.2177 0.00194264 0.00308536 -0.0072894
128 1 -7.16298 6.78628 20.2364 0.00324242 -0.0112683 0.00936234
139 1 -6.57442 8.02318 20.2999 -0.00180079 -0.00472664 0.00449135
140 1 -6.60892 10.469 19.9999 0 0 0
156 1 -4.38388 6.78641 19.8833 0.00874504 -0.00429829 -0.0124364
157 1 -5.15402 8.02145 19.9687 -0.0099788 9.62069e-05 0.00672851
158 1 -4.42025 9.17392 20.0825 -0.000744885 0.0108819 -0.0034941
159 1 -5.14663 10.4689 19.9999 0 0 0
160 1 -4.36691 11.6023 19.9999 0 0 0
168 1 -2.96038 6.79624 19.905 -0.00334658 0.00242453 -0.00798521
169 1 -3.0241 9.20826 19.9428 0.00193292 -0.000126257 0.00872045
170 1 -3.12269 11.6018 19.9999 0 0 0
179 1 -2.2535 8.02388 20.0438 0.00337681 0.00448812 -0.00610495
180 1 -2.34103 10.4689 19.9999 0 0 0
196 1 -0.145802 6.77225 19.9974 0.00429473 0.0106565 -0.00728684
197 1 -0.838961 8.01289 19.9383 0.000975594 0.00110494 -0.0117648
198 1 -0.130365 9.26766 19.8376 -0.00463731 -0.00360475 -0.000433045
199 1 -0.876963 10.4688 19.9999 0 0 0
200 1 -0.0953724 11.6018 19.9999 0 0 0
208 1 1.23372 6.6784 19.9092 -0.00780755 0.0029369 0.00313013
209 1 1.23052 9.21981 19.8861 -0.00462645 0.00284026 -0.00472483
210 1 1.14924 11.6018 19.9999 0 0 0
219 1 1.91555 7.95777 19.9441 0.00574252 0.00191262 0.00362094
220 1 1.93091 10.4688 19.9999 0 0 0
236 1 4.12487 6.74289 20.2513 0.0017924 0.00303344 0.00712508
237 1 3.34959 7.97958 20.1558 0.00117557 0.00503892 -0.00619572
238 1 4.07085 9.16736 20.0666 0.000400088 -0.0049402 -0.00227907
239 1 3.39506 10.4687 19.9999 0 0 0
240 1 4.17656 11.6018 19.9999 0 0 0
248 1 5.50998 6.69768 20.4967 -0.00684925 -0.00485125 -0.000216691
249 1 5.47707 9.17721 20.0955 0.00388235 -0.00293622 0.00152723
250 1 5.4212 11.6017 19.9999 0 0 0
259 1 6.12096 7.99038 20.3808 0.00523594 -0.00266462 0.00190464
260 1 6.20335 10.4685 19.9999 0 0 0
277 1 7.56675 7.9258 20.3032 0.00734753 -0.0052425 0.0106708
276 1 8.31149 6.67429 20.2646 -0.00675285 -0.00519039 0.0163052
278 1 8.33287 9.13647 20.1973 0.00137729 0.00678615 0.00148549
279 1 7.66711 10.4687 19.9999 0 0 0
280 1 8.44529 11.6024 19.9999 0 0 0
288 1 9.69167 6.78534 20.2254 -0.000391675 -0.00175823 0.0159308
289 1 9.7619 9.21992 20.1199 -0.00494063 0.00132065 0.001282
290 1 9.6873 11.6101 19.9999 0 0 0
299 1 10.4799 7.9761 20.0489 -0.00670482 0.000426269 0.00633556
300 1 10.4752 10.4755 19.9999 0 0 0
316 1 12.6473 6.74288 19.9999 0 0 0
317 1 11.9051 7.97805 19.9999 0 0 0
318 1 12.6583 9.19198 19.9999 0 0 0
319 1 11.9246 10.4937 19.9999 0 0 0
320 1 12.7709 11.5297 19.9999 0 0 0
328 1 14.0456 6.75188 19.9999 0 0 0
329 1 14.0237 9.17042 19.9999 0 0 0
330 1 13.9415 11.792 19.9999 0 0 0
