ITEM: TIMESTEP
31700
ITEM: NUMBER OF ATOMS
330
ITEM: BOX BOUNDS pp pp pp
-1.4715758017245314e+01 1.5057610017245315e+01
-1.2710055654020760e+01 1.2664508654020761e+01
-5.0001035148846022e+01 1.0000103514884636e+02
ITEM: ATOMS id type x y z vx vy vz
44 1 -0.696121 -1.45148 1.07351 -0.00225724 -0.00246581 -0.0150057
20 1 -1.20575 -1.79659 2.38832 0.00233274 -0.000146683 -0.0201322
4 1 -1.70243 -0.774523 3.27242 0.0011061 -0.00331391 -0.0135513
60 1 -0.533615 -2.8011 3.20471 0.000325262 0.0034683 -0.0177527
28 1 0.525478 -2.04753 0.764879 0.00101558 0.00419164 -0.0220303
8 1 1.26445 -1.0415 0.110914 0.00858706 0.000782575 -0.0165642
7 1 2.62239 -1.07112 0.33108 0.0115531 0.00127958 -0.0197069
26 1 3.30898 -2.08486 1.02349 -0.00132479 0.00111375 -0.026991
38 1 4.45136 -0.0321252 1.29974 0.00093095 0.00196853 -0.0181354
52 1 1.16822 -3.12601 1.48654 -0.00141626 0.00470461 -0.0168807
40 1 4.42889 -1.41051 1.67591 0.00129516 0.00653766 -0.0171007
50 1 2.58492 -3.17836 1.68614 -0.00284297 0.000762749 -0.0212612
36 1 0.6315 -3.53221 2.77666 0.00931712 0.000665646 -0.0172424
16 1 4.75955 -1.81008 2.94415 0.00314577 0.00654898 -0.0178027
35 1 2.9323 -3.56095 3.00645 -0.00548027 -0.000602367 -0.012426
42 1 -0.629471 -0.0770998 0.739995 0.00235817 -0.00267952 -0.0124397
18 1 -1.10668 0.97758 1.55264 0.00581255 -0.00343837 -0.0168926
56 1 -0.461003 2.26663 1.75631 0.00593143 -0.0025826 -0.0271962
3 1 -1.59978 0.617921 2.84271 0.00327156 0.0017557 -0.0228951
54 1 -0.578855 2.7097 3.11559 0.00269239 -0.00240798 -0.0109285
27 1 0.561847 0.226479 0.0185205 0.00518713 0.000388917 -0.0167512
51 1 1.25039 1.47882 0.199943 0.000992934 -0.00234905 -0.013403
25 1 3.31643 0.19736 0.418293 0.00861909 0.00113625 -0.0173644
49 1 2.66524 1.44808 0.450755 -0.000313852 0.0035883 -0.0181748
32 1 0.796732 2.51845 1.07304 0.00104228 -0.0013101 -0.0160263
31 1 3.08611 2.47602 1.31684 0.0109789 0.00385464 -0.0200003
10 1 1.89098 3.14098 1.79092 -0.00216923 -0.00431889 -0.0182084
14 1 4.81576 0.995851 2.21042 0.00382232 0.000842184 -0.0244907
55 1 4.17877 2.24875 2.2394 0.00530262 -0.00265929 -0.0190544
9 1 1.75391 3.50074 3.17626 0.00273991 0.000115445 -0.0186094
19 1 -1.29427 -1.10592 4.59275 -0.00524854 -0.00122957 -0.0185714
58 1 -0.615364 -2.37356 4.58461 0.00235944 -0.00201711 -0.01198
43 1 -0.878985 -0.133796 5.48414 0.00216461 -0.0040415 -0.0207735
24 1 0.0720804 -0.430878 6.49746 0.00259765 -0.0007239 -0.0174063
34 1 0.413759 -2.6556 5.48326 0.00678239 -0.00422555 -0.0143923
12 1 1.72258 -3.73026 3.70322 0.00578699 0.0040016 -0.017743
2 1 5.12267 -0.833044 3.87266 0.0102818 0.00690954 -0.0191463
59 1 4.05661 -2.87691 3.5833 0.000226127 0.00588532 -0.0184545
11 1 1.58778 -3.26737 5.02474 0.00173195 -0.00351939 -0.0177751
15 1 4.46749 -1.14234 5.07774 0.001081 -0.00748838 -0.0109799
57 1 3.87924 -2.39261 4.94022 0.00325549 -0.00327264 -0.0179688
33 1 2.71194 -2.66529 5.70165 0.0006339 -0.0129282 -0.015371
48 1 0.791217 -1.65618 6.46695 -0.00290402 0.00256269 -0.0194667
46 1 2.17684 -1.66326 6.61427 0.00401575 -0.0070187 -0.0131188
22 1 2.78907 -0.384622 6.72363 0.00465952 0.00432355 -0.0221774
39 1 3.96755 -0.178675 5.97864 0.00253699 -0.00419949 -0.0175714
17 1 -1.24228 1.63565 3.77504 -0.00170396 0.00577417 -0.0144684
41 1 -0.861078 1.20706 5.04678 -0.00446196 0.00436768 -0.0180883
23 1 0.171794 1.86364 5.8349 -0.00251776 0.00290326 -0.0160944
30 1 0.500233 3.34054 3.84384 0.00806109 0.00402144 -0.0236273
1 1 5.14104 0.55859 3.53135 -0.00407904 -0.0036265 -0.0165639
53 1 4.05747 2.70272 3.62696 -0.00233473 -0.00326614 -0.0230055
29 1 2.8269 3.25755 4.10559 -0.00388919 0.00268436 -0.0207279
13 1 4.69016 1.64587 4.38649 0.00196505 0.00260845 -0.0210686
47 1 0.833246 2.93327 5.15928 0.000190223 0.00297196 -0.0213458
37 1 4.09622 1.21954 5.64416 0.00445371 -0.0074132 -0.011146
45 1 2.25238 2.89609 5.31828 0.00370135 -0.000382617 -0.00515745
6 1 0.740023 0.858007 6.7066 0.000893542 0.00586561 -0.0191761
21 1 2.91837 1.86794 6.09495 0.00271478 -0.00399081 -0.0210291
5 1 2.1255 0.862881 6.77679 -0.000610423 -0.00227621 -0.0168305
61 1 -13.6674 -11.9461 19.9999 0 0 0
62 1 -13.1228 -10.6724 19.9999 0 0 0
63 1 -13.7825 -9.34696 19.9999 0 0 0
64 1 -13.0772 -8.00396 19.9999 0 0 0
65 1 -13.7542 -6.79742 19.9999 0 0 0
81 1 -11.507 -10.5408 19.9999 0 0 0
82 1 -11.5331 -8.01671 19.9999 0 0 0
91 1 -10.7591 -11.6424 19.9999 0 0 0
92 1 -10.8215 -9.24886 19.8114 0.0075849 -0.00183951 -0.0103109
93 1 -10.7892 -6.74876 19.8973 0.00135536 -0.00362758 -0.00189137
101 1 -9.52473 -11.6468 19.9999 0 0 0
102 1 -8.74136 -10.5124 19.9999 0 0 0
103 1 -9.32787 -9.21176 19.7703 -0.000440907 -0.00639928 -0.000232076
104 1 -8.61965 -7.95337 19.8175 -0.0108895 -0.0102389 -0.00806138
105 1 -9.33284 -6.71951 19.8872 -0.00251115 -0.00345718 -0.00333635
121 1 -7.27873 -10.5146 19.9999 0 0 0
122 1 -7.23844 -7.97889 19.8953 -0.00757893 -0.00279998 0.00307359
131 1 -6.50232 -11.6488 19.9999 0 0 0
132 1 -6.5625 -9.19538 19.9532 -0.00520668 0.00287723 -0.000502877
133 1 -6.54177 -6.70984 19.972 0.00716384 -0.0072988 0.00866461
141 1 -5.25854 -11.6473 19.9999 0 0 0
142 1 -4.47674 -10.5145 19.9999 0 0 0
143 1 -5.14668 -9.20371 19.9211 -0.00496529 -0.00404438 -0.00415887
144 1 -4.45353 -7.972 19.8948 0.00421333 -0.00135826 -0.00527695
145 1 -5.12797 -6.6847 19.9644 0.00306346 0.000743122 0.00796181
161 1 -3.01281 -10.5144 19.9999 0 0 0
162 1 -2.97927 -7.98777 19.9053 -0.00807016 0.000449759 -0.00438709
171 1 -2.23133 -11.6474 19.9999 0 0 0
172 1 -2.23483 -9.18102 19.8924 0.00247434 -0.0093463 -0.0152858
173 1 -2.24319 -6.70682 19.8866 -0.00297139 0.00260043 0.00465301
181 1 -0.986751 -11.6474 19.9999 0 0 0
182 1 -0.205108 -10.5143 19.9999 0 0 0
183 1 -0.830718 -9.16726 20.0289 -0.0042531 0.00702532 0.0127897
184 1 -0.0459793 -7.97419 20.1627 0.0118896 -0.00984963 0.00324926
185 1 -0.818765 -6.76106 20.1012 -0.0156171 0.000668983 0.00989734
201 1 1.25901 -10.5143 19.9999 0 0 0
202 1 1.40578 -7.98167 20.2604 -0.000801776 -0.00585872 -0.00266719
211 1 2.0406 -11.6474 19.9999 0 0 0
212 1 2.04024 -9.22709 20.1905 0.00414597 0.00299787 0.00267892
213 1 2.07017 -6.67833 20.3901 0.00355504 -0.00634735 -0.0106838
221 1 3.28523 -11.6473 19.9999 0 0 0
222 1 4.06705 -10.5143 19.9999 0 0 0
223 1 3.48569 -9.15062 20.1886 -0.00110883 0.00609515 -0.00229852
224 1 4.19475 -7.92197 20.2837 -0.00486016 -0.00420191 -0.00434328
225 1 3.5078 -6.67297 20.4157 -0.00329956 0.00101297 -0.0137111
241 1 5.53108 -10.5143 19.9999 0 0 0
242 1 5.61081 -7.99164 20.0504 0.000431829 -0.00611676 -0.00531142
251 1 6.31174 -11.6474 19.9999 0 0 0
252 1 6.28394 -9.20944 19.9472 0.00623341 0.000547071 -0.00318476
253 1 6.3463 -6.73311 20.0689 0.00153633 0.00483877 0.00933185
261 1 7.55524 -11.6498 19.9999 0 0 0
265 1 7.74518 -6.71429 19.9192 -0.009076 0.00535713 0.00312143
263 1 7.70886 -9.24968 19.8533 -0.00311284 0.00166745 -0.0084544
262 1 8.33779 -10.5154 19.9999 0 0 0
264 1 8.41235 -7.99122 19.7688 0.00432707 -0.00692615 -0.00180995
281 1 9.79556 -10.5245 19.9999 0 0 0
282 1 9.81261 -8.00976 19.6819 -0.000874215 0.000878243 -0.00891699
291 1 10.5816 -11.6418 19.9999 0 0 0
292 1 10.5294 -9.24714 19.8329 -0.000641431 -0.00446962 -0.00414266
293 1 10.4895 -6.73427 20.0224 -0.00491461 -0.000987931 0.00311351
301 1 11.8019 -11.7522 19.9999 0 0 0
302 1 12.7161 -10.5156 19.9999 0 0 0
303 1 11.8934 -9.22642 19.9999 0 0 0
304 1 12.655 -8.00627 19.9999 0 0 0
305 1 11.8992 -6.77596 19.9999 0 0 0
321 1 14.087 -10.4984 19.9999 0 0 0
322 1 14.0714 -8.01298 19.9999 0 0 0
66 1 -13.0658 -5.54976 19.9999 0 0 0
67 1 -13.7179 -4.30197 19.9999 0 0 0
68 1 -13.0406 -3.0891 19.9999 0 0 0
69 1 -13.6883 -1.86008 19.9999 0 0 0
70 1 -13.0424 -0.636745 19.9999 0 0 0
83 1 -11.5387 -5.54743 19.9999 0 0 0
84 1 -11.5566 -3.09089 19.9999 0 0 0
85 1 -11.5625 -0.637245 19.9999 0 0 0
94 1 -10.8546 -4.28296 20.02 -0.00798866 -0.00387488 0.000604814
95 1 -10.7852 -1.89924 20.0336 0.000353848 0.000196939 0.00315304
106 1 -8.68348 -5.44845 19.8504 -0.00940806 0.00502953 0.00377595
107 1 -9.40768 -4.21139 20.0062 0.00156603 -0.0115817 -0.00308906
108 1 -8.66597 -3.03388 19.9865 -0.000787808 -0.00329492 -0.00287781
109 1 -9.3524 -1.7899 20.1622 -0.00243223 -0.00501091 -0.00648853
110 1 -8.64728 -0.530146 20.2651 -0.00395742 0.00476061 -0.00221083
125 1 -7.20796 -0.583822 20.2109 -0.00532246 -0.0022826 -0.00749958
124 1 -7.26096 -3.05114 19.9642 -0.0119192 -0.00303895 0.000958928
123 1 -7.26521 -5.45279 19.9526 0.00603242 -9.25804e-05 0.00480525
186 1 -0.162879 -5.45207 20.1716 -0.0153274 -0.00275335 0.0126008
134 1 -6.55426 -4.24073 19.8368 -0.00725609 0.00119681 0.00720095
163 1 -2.98721 -5.46024 19.8314 -0.000710708 -0.00141568 0.00628495
135 1 -6.50871 -1.80251 20.0256 7.13045e-06 -0.00152929 -0.0020078
146 1 -4.40203 -5.43322 19.9057 0.00825081 0.00542854 0.000424028
147 1 -5.14843 -4.2045 19.8048 0.0041126 0.00681045 0.00154258
148 1 -4.41168 -3.04249 19.6771 8.24942e-05 -0.0010265 0.00533622
149 1 -5.10168 -1.83362 19.8072 -0.0155687 0.000470239 -0.0102196
164 1 -2.98205 -3.03608 19.3454 0.00250917 0.00391966 0.00740627
174 1 -2.29617 -4.27179 19.5971 -0.00308192 0.0123851 0.0110655
150 1 -4.38397 -0.623228 19.572 0.0044329 0.00533286 0.00424268
187 1 -0.867037 -4.30011 19.7507 -0.00234742 -0.00497312 0.00388434
165 1 -2.97466 -0.647832 19.1836 -0.00562118 0.00484617 0.00996219
175 1 -2.28942 -1.86257 19.1389 0.00482848 -0.00754019 0.012291
188 1 -0.127328 -3.10926 19.6956 0.00164683 0.0008991 0.00834717
189 1 -0.801468 -1.91237 19.3275 -0.00358873 -0.0114976 0.0249184
190 1 -0.132771 -0.65263 19.2621 -0.0117152 0.00089226 0.00634094
203 1 1.29812 -5.49557 20.2738 3.87543e-05 0.000444798 -0.00528327
226 1 4.17622 -5.45781 20.4637 0.00311057 0.0128866 -0.00799385
243 1 5.64245 -5.50169 20.2651 0.00402149 -0.00171627 -0.00483009
254 1 6.23729 -4.22965 20.3545 0.00658372 0.000619518 -1.44975e-05
255 1 6.23065 -1.79178 20.4953 0.0131695 0.0033929 -0.00740772
227 1 3.43808 -4.20591 20.3932 -0.00476866 0.00257145 -0.00211497
244 1 5.48649 -2.97147 20.5204 0.00918659 -0.00507466 -0.000744927
214 1 1.98385 -4.2683 20.2685 -0.00203032 0.00157067 -0.00870588
228 1 4.1103 -2.94744 20.5083 0.00667126 0.00371313 -0.00945038
245 1 5.51391 -0.606935 20.1972 0.00207377 -0.00258932 -0.00508945
229 1 3.40128 -1.75891 20.1621 0.00358382 0.0120411 -0.00505352
230 1 4.15048 -0.547742 20.0185 0.0033869 0.00149081 -0.00253561
204 1 1.28646 -3.06175 19.9539 0.0019661 0.00332505 -6.41027e-05
215 1 2.01668 -1.83915 19.8308 0.00323951 0.0116777 0.00487774
205 1 1.31288 -0.627067 19.46 -0.0141131 0.00460795 0.0106451
269 1 7.62093 -1.79018 20.5304 0.00766466 0.0019469 -0.00467609
267 1 7.65964 -4.29925 20.3822 0.00443356 -0.00434921 -0.00663448
266 1 8.39736 -5.51601 20.2096 0.00516488 -0.00979225 -0.00152139
268 1 8.3321 -3.02465 20.3945 0.000273009 -0.0131957 0.000963273
270 1 8.37426 -0.612485 20.4845 -0.000189652 0.00653763 -0.00158235
283 1 9.7887 -5.48258 20.1862 -0.000862864 -0.00719034 0.00157266
284 1 9.78076 -3.0511 20.2249 0.00267451 -0.0046832 0.00191097
285 1 9.81822 -0.61734 20.4069 0.00671066 -0.00372517 0.00385375
294 1 10.5107 -4.2739 20.2264 0.0117286 0.00358878 -0.00149654
295 1 10.5182 -1.88479 20.3059 -0.0076505 -0.000851495 -0.00102334
306 1 12.6496 -5.55341 19.9999 0 0 0
307 1 11.9041 -4.32686 19.9999 0 0 0
308 1 12.647 -3.09734 19.9999 0 0 0
309 1 11.9037 -1.86828 19.9999 0 0 0
310 1 12.6457 -0.637745 19.9999 0 0 0
323 1 14.0539 -5.56516 19.9999 0 0 0
324 1 14.0472 -3.10129 19.9999 0 0 0
325 1 14.0438 -0.638188 19.9999 0 0 0
71 1 -13.6826 0.591886 19.9999 0 0 0
72 1 -13.0424 1.82079 19.9999 0 0 0
73 1 -13.6895 3.04359 19.9999 0 0 0
74 1 -13.0413 4.27397 19.9999 0 0 0
75 1 -13.7195 5.48914 19.9999 0 0 0
86 1 -11.5623 1.82169 19.9999 0 0 0
87 1 -11.5564 4.27485 19.9999 0 0 0
96 1 -10.8747 0.604503 20.146 0.00353152 -0.00287077 -0.00403704
97 1 -10.8667 3.06254 20.0653 0.00337016 0.00231174 -0.00476183
98 1 -10.8362 5.51777 19.9689 -0.00294014 0.00364974 0.00718989
111 1 -9.43349 0.624886 20.1417 0.000389201 0.00763101 -0.00505056
112 1 -8.63393 1.80893 20.0504 -0.0121193 0.00246923 -0.00349835
113 1 -9.40312 3.00939 20.0342 -0.00378083 -0.00431828 0.00996938
114 1 -8.71787 4.16489 19.6806 -0.00889063 0.00113756 -0.0046523
115 1 -9.40824 5.41003 19.8348 -0.00150648 0.000456675 0.000911562
127 1 -7.28758 4.20407 19.7918 -0.00565723 0.00246727 -0.000893627
126 1 -7.20081 1.72364 20.0459 -0.00318865 -0.00327336 -0.0115226
138 1 -6.53995 5.42202 19.7834 -0.00485213 -0.00529283 0.00666441
195 1 -0.82293 5.45328 20.0006 -0.00431215 0.00535342 0.00822987
155 1 -5.14055 5.37717 19.706 -0.00593592 -0.00249463 0.0020455
178 1 -2.24951 5.41951 19.7543 -0.00476337 -0.0034175 0.00473574
137 1 -6.57949 3.0232 19.8977 0.00531403 0.00414628 0.00210127
153 1 -5.17123 2.98658 19.6961 -0.00748353 -0.000507191 0.00690211
154 1 -4.45199 4.1549 19.5828 -0.0106649 0.00372559 0.00993006
136 1 -6.46957 0.597991 20.003 -0.0116607 -0.00460849 -0.00780938
151 1 -5.02445 0.576868 19.7133 -0.0156652 0.00316072 -0.00415583
167 1 -2.99211 4.21416 19.5584 -0.000172676 0.00548569 0.00403379
152 1 -4.39134 1.82013 19.518 -0.00763836 -0.00677894 0.00615297
177 1 -2.26267 3.05671 19.3209 0.0174748 0.00421326 0.00647719
194 1 -0.0755195 4.28817 19.9054 -0.00868744 0.00695811 0.00114087
166 1 -2.94597 1.80815 19.1927 0.00233033 -0.00538842 0.00871188
176 1 -2.25302 0.559752 19.1127 -0.00582809 0.00375655 0.0123964
193 1 -0.807825 3.12694 19.4039 -0.00703573 0.00708088 0.0107623
191 1 -0.800902 0.626132 19.1223 -0.0102875 -0.00676228 0.0130277
192 1 -0.140994 1.91345 19.2584 -9.32067e-05 0.00380879 0.01212
218 1 2.2174 5.33927 20.3047 0.00710449 -0.00920185 -0.0157132
235 1 3.59387 5.39452 20.2522 0.00637151 -0.00695842 -0.017203
247 1 5.64026 4.23381 20.2092 0.000387604 -0.00387905 -0.00828881
257 1 6.31655 3.05489 20.3871 -0.00261844 -5.79263e-05 -0.00747356
258 1 6.34237 5.47325 20.0856 -0.00138146 -0.000272667 -0.00418804
234 1 4.19919 4.19662 20.1684 0.000524528 -0.0133131 -0.00885858
256 1 6.30736 0.602562 20.1879 -0.0031101 0.00545891 -0.00864998
246 1 5.65737 1.7987 20.1042 0.00862041 0.00321489 -0.00615629
233 1 3.4116 2.98882 20.1321 0.0027688 -0.0019016 -0.00286205
231 1 3.43736 0.623381 19.75 -0.00957017 -0.0133312 -0.00185196
232 1 4.19051 1.78454 20.0465 0.00276703 0.00566169 -0.0124716
207 1 1.34534 4.224 20.033 0.00147958 -0.0106863 0.00257338
217 1 2.02478 2.98774 19.9122 0.00836642 -0.0017754 0.00514465
206 1 1.29525 1.82827 19.5411 -0.00570462 0.00371486 0.00281806
216 1 1.97632 0.608034 19.5496 -0.000835228 0.00382951 0.00660169
271 1 7.70679 0.598228 20.4124 0.00113903 0.0135 -0.0106745
275 1 7.76143 5.47476 20.0092 -0.00240515 -0.0054461 0.00169175
273 1 7.71288 3.07995 20.4885 0.00186661 0.009189 0.00238156
272 1 8.40996 1.81522 20.4811 0.00790997 0.00754656 -0.00043821
274 1 8.4217 4.25473 20.2814 0.00318369 -0.00223842 0.00108079
286 1 9.80452 1.8305 20.3331 -0.00281202 -0.00363752 -0.000103938
287 1 9.77747 4.28907 20.0697 0.00139247 0.00234173 -0.0013567
296 1 10.5466 0.600247 20.2641 0.0034961 0.00257725 -0.000640188
297 1 10.5236 3.02671 20.1707 -0.00100802 -0.00116206 -0.000187653
298 1 10.5006 5.49216 20.1283 -0.00375095 -0.00111563 -0.00147353
311 1 11.9034 0.592385 19.9999 0 0 0
312 1 12.6457 1.82255 19.9999 0 0 0
313 1 11.9038 3.05326 19.9999 0 0 0
314 1 12.6466 4.28301 19.9999 0 0 0
315 1 11.9041 5.51379 19.9999 0 0 0
326 1 14.0439 1.82305 19.9999 0 0 0
327 1 14.0468 4.28589 19.9999 0 0 0
76 1 -13.0678 6.73987 19.9999 0 0 0
77 1 -13.743 7.99662 19.9999 0 0 0
78 1 -13.076 9.22053 19.9999 0 0 0
79 1 -13.6781 10.6114 19.9999 0 0 0
80 1 -13.0646 11.9529 19.9999 0 0 0
88 1 -11.5395 6.7281 19.9999 0 0 0
89 1 -11.5535 9.18478 19.9999 0 0 0
90 1 -11.7099 11.6077 19.9999 0 0 0
99 1 -10.8223 7.96092 19.864 -0.00349258 -0.00308239 -0.0111347
100 1 -10.9027 10.4758 19.9999 0 0 0
116 1 -8.6767 6.62665 19.8013 -0.00258681 0.000577613 0.00370098
117 1 -9.36552 7.88492 19.8721 -0.0041781 -0.00575346 -0.000125188
118 1 -8.7174 9.16027 19.9138 0.000587283 -0.00218826 -0.00771512
119 1 -9.37207 10.4804 19.9999 0 0 0
120 1 -8.62688 11.6228 19.9999 0 0 0
130 1 -7.38724 11.6024 19.9999 0 0 0
128 1 -7.26318 6.62907 19.8945 0.00272413 -0.00679238 0.00810519
129 1 -7.27318 9.12271 19.9482 -0.000962946 -0.000244753 0.00138606
139 1 -6.55655 7.90805 19.8792 -0.00329377 -0.00175868 -0.00562329
140 1 -6.60892 10.469 19.9999 0 0 0
156 1 -4.4277 6.65308 19.7858 -0.00688463 -0.00918737 0.00085891
157 1 -5.11341 7.90854 19.8943 0.00563535 7.6912e-05 -0.00618366
158 1 -4.39207 9.167 20.021 -0.000519064 0.00503429 -0.00932925
159 1 -5.14663 10.4689 19.9999 0 0 0
160 1 -4.36691 11.6023 19.9999 0 0 0
168 1 -3.00654 6.60993 19.781 -0.00835858 -0.000293623 0.00518192
169 1 -3.00845 9.10352 19.9829 -0.00877303 0.000935666 -0.00261555
170 1 -3.12269 11.6018 19.9999 0 0 0
179 1 -2.26825 7.85275 19.8893 -0.00157233 -0.00760927 -0.000541999
180 1 -2.34103 10.4689 19.9999 0 0 0
196 1 -0.0265558 6.64604 20.2411 -0.00208349 0.00244708 0.00329139
197 1 -0.818513 7.84733 20.0822 -0.00101305 -0.000455535 0.00932435
198 1 -0.0702551 9.13253 20.1048 0.00286173 -0.0139485 -0.00681458
199 1 -0.876963 10.4688 19.9999 0 0 0
200 1 -0.0953724 11.6018 19.9999 0 0 0
208 1 1.43828 6.5509 20.2826 -0.00109851 -0.00685352 -0.00226413
209 1 1.3326 9.12907 20.1571 0.00697662 0.000847344 0.00497951
210 1 1.14924 11.6018 19.9999 0 0 0
219 1 2.06032 7.83251 20.1975 -0.00906794 0.0055602 -0.00325512
220 1 1.93091 10.4688 19.9999 0 0 0
236 1 4.24192 6.67564 20.1221 0.00913091 -0.000625611 -0.0110411
237 1 3.52077 7.85512 20.129 -0.00737874 -0.00879612 -0.00771286
238 1 4.13301 9.17296 20.0675 0.00352048 -0.000254897 0.004372
239 1 3.39506 10.4687 19.9999 0 0 0
240 1 4.17656 11.6018 19.9999 0 0 0
248 1 5.68135 6.74237 19.9627 -0.000588527 -0.00374341 -0.00497933
249 1 5.54944 9.20932 20.0057 0.00043753 -0.0112762 -0.00042604
250 1 5.4212 11.6017 19.9999 0 0 0
259 1 6.34699 8.00125 19.8048 0.00231509 -0.00294436 -0.00497131
260 1 6.20335 10.4685 19.9999 0 0 0
277 1 7.77611 7.99547 19.7722 0.00429525 0.000622784 -0.000575778
276 1 8.43876 6.74161 19.8611 0.00371627 -0.00167813 0.00776105
278 1 8.48186 9.20568 19.8747 0.0028551 -0.00331265 -0.0116147
279 1 7.66711 10.4687 19.9999 0 0 0
280 1 8.44529 11.6024 19.9999 0 0 0
288 1 9.81012 6.72682 19.9031 0.00531213 0.000991006 0.000431248
289 1 9.80961 9.16624 19.8326 -0.000654278 0.00425404 -0.00779892
290 1 9.6873 11.6101 19.9999 0 0 0
299 1 10.5196 7.96809 19.9563 0.00143116 1.20749e-05 0.000661202
300 1 10.4752 10.4755 19.9999 0 0 0
316 1 12.6473 6.74288 19.9999 0 0 0
317 1 11.9051 7.97805 19.9999 0 0 0
318 1 12.6583 9.19198 19.9999 0 0 0
319 1 11.9246 10.4937 19.9999 0 0 0
320 1 12.7709 11.5297 19.9999 0 0 0
328 1 14.0456 6.75188 19.9999 0 0 0
329 1 14.0237 9.17042 19.9999 0 0 0
330 1 13.9415 11.792 19.9999 0 0 0
