ITEM: TIMESTEP
21400
ITEM: NUMBER OF ATOMS
330
ITEM: BOX BOUNDS pp pp pp
-1.4715758017245314e+01 1.5057610017245315e+01
-1.2710055654020760e+01 1.2664508654020761e+01
-5.0001035148846022e+01 1.0000103514884636e+02
ITEM: ATOMS id type x y z vx vy vz
8 1 0.0278062 -1.18032 9.36567 0.0080614 0.00266483 -0.0200696
7 1 1.45245 -1.22624 9.44194 -0.000231606 0.00391311 -0.0164971
27 1 -0.668747 0.00564024 9.25559 0.00496171 0.00258056 -0.0176023
51 1 0.0431935 1.24669 9.34539 -0.00193321 0.00306919 -0.0133281
25 1 2.10274 0.0519638 9.56952 0.00112709 -0.00254653 -0.0106053
49 1 1.43471 1.25972 9.49035 -0.00228545 0.00114422 -0.0166303
28 1 -0.721732 -2.26172 10.0086 -0.000696359 -0.00136128 -0.0145284
42 1 -1.83149 -0.181545 9.98967 -0.00340497 -0.0014064 -0.0249578
44 1 -1.85994 -1.51154 10.5387 -0.00149908 -0.00291349 -0.0149209
52 1 0.0204955 -3.2102 10.7573 0.00414411 0.00610858 -0.0203111
20 1 -2.28958 -1.81568 11.8606 -1.82302e-05 0.00013019 -0.019825
36 1 -0.452875 -3.48281 12.1328 0.00768424 0.00121478 -0.0256686
4 1 -2.7532 -0.754649 12.6227 0.00660261 -0.00135619 -0.0168432
60 1 -1.61173 -2.78265 12.6461 0.0062395 -0.00112709 -0.0132501
19 1 -2.40969 -1.0619 13.9797 0.0160441 0.000910002 -0.0203539
58 1 -1.71252 -2.31242 14.0194 0.00582572 0.00198511 -0.0209632
34 1 -0.5694 -2.44713 14.8189 0.00545334 -0.00453723 -0.0179096
26 1 2.21998 -2.21826 10.1774 0.00640759 -0.000265992 -0.0148543
38 1 3.26279 -0.196822 10.3971 0.00185023 -0.00197919 -0.0161829
40 1 3.28903 -1.54463 10.7695 0.000656027 -0.00319831 -0.0167548
50 1 1.4628 -3.23216 10.8377 0.000815491 -0.00514275 -0.0187332
16 1 3.73184 -1.83599 12.0854 -0.000854498 0.00116384 -0.0171675
35 1 1.84654 -3.42723 12.2087 -0.00479009 -0.0114093 -0.0126602
12 1 0.667783 -3.58365 12.9697 0.00305642 -0.00672908 -0.0201718
2 1 4.12272 -0.747412 12.964 -0.00245633 -0.00387016 -0.0146236
59 1 2.9435 -2.77226 12.8441 0.00115272 0.00385205 -0.0178568
11 1 0.585701 -3.07396 14.2957 0.00507558 -0.00317146 -0.0167687
15 1 3.59199 -1.03125 14.2458 -0.00252246 -0.00148185 -0.0164703
57 1 2.86129 -2.27217 14.2008 0.00120564 0.00806068 -0.0168737
33 1 1.70163 -2.48967 14.8859 -5.5173e-05 -0.00935755 -0.0158529
32 1 -0.457893 2.38821 10.0993 -0.00142469 0.00454751 -0.0191291
18 1 -2.3098 0.877574 10.8102 0.00324273 0.00484768 -0.0215446
56 1 -1.62007 2.16227 10.8967 -0.00274524 0.00313156 -0.0168052
3 1 -2.80224 0.598937 12.1421 0.0048115 -0.00314053 -0.0210857
54 1 -1.60448 2.59685 12.2148 0.00417534 0.00242911 -0.0217518
30 1 -0.508498 3.28173 12.8789 0.00290496 -0.0039655 -0.0192847
17 1 -2.23431 1.62081 12.965 0.00825 -0.0046795 -0.0164053
41 1 -1.90392 1.34016 14.3159 0.00912852 -0.0037813 -0.017062
47 1 -0.135941 3.02808 14.2483 0.0106273 0.000473716 -0.0190106
23 1 -0.849103 2.03255 15.0267 0.00410202 0.00207369 -0.0116325
43 1 -1.96097 0.0156013 14.8497 0.0066263 -0.000822402 -0.0204498
10 1 0.674067 3.01638 10.7572 0.00232779 0.00653455 -0.027963
31 1 1.83039 2.33879 10.3443 0.00755538 0.00344737 -0.016376
14 1 3.73328 0.90916 11.1942 -0.00538506 0.000550797 -0.016643
55 1 3.03162 2.17143 11.1596 0.000624043 -0.00111659 -0.01564
9 1 0.677556 3.43813 12.1406 -0.000612187 0.00969038 -0.021257
1 1 4.16578 0.615184 12.5363 0.00728829 -0.00068858 -0.0208503
53 1 3.00634 2.60795 12.5133 0.00574689 0.00208807 -0.017402
29 1 1.81968 3.24622 12.9876 -0.00149017 0.000515364 -0.0160278
13 1 3.60986 1.6308 13.3216 -0.00460131 -0.00503004 -0.0163549
37 1 3.14247 1.36197 14.6387 0.000593502 0.00367523 -0.0259887
45 1 1.34402 3.0487 14.3246 -0.00291908 -0.00273928 -0.0166589
39 1 3.14084 0.00979651 15.13 -0.00151272 -0.00208066 -0.0246708
21 1 2.02006 2.08994 15.169 -0.000178537 -0.00249961 -0.0104372
61 1 -13.6674 -11.9461 19.9999 0 0 0
62 1 -13.1228 -10.6724 19.9999 0 0 0
63 1 -13.7825 -9.34696 19.9999 0 0 0
64 1 -13.0772 -8.00396 19.9999 0 0 0
65 1 -13.7542 -6.79742 19.9999 0 0 0
81 1 -11.507 -10.5408 19.9999 0 0 0
82 1 -11.5331 -8.01671 19.9999 0 0 0
91 1 -10.7591 -11.6424 19.9999 0 0 0
92 1 -10.8647 -9.22248 19.9447 -0.00529335 -0.00360153 0.00201214
93 1 -10.8374 -6.76175 19.9447 0.0085892 0.00523947 0.017785
101 1 -9.52473 -11.6468 19.9999 0 0 0
102 1 -8.74136 -10.5124 19.9999 0 0 0
103 1 -9.3846 -9.21072 19.9053 -0.00267695 -0.00410298 -0.00305553
104 1 -8.73124 -7.98706 20.0032 -0.0144561 -0.00508917 -0.00201155
105 1 -9.44436 -6.76358 20.0005 -0.00946968 -0.00755343 0.0112298
121 1 -7.27873 -10.5146 19.9999 0 0 0
122 1 -7.27789 -7.99372 20.1948 -0.00779649 -0.00675825 -0.000123273
131 1 -6.50232 -11.6488 19.9999 0 0 0
132 1 -6.53301 -9.18774 20.122 -0.00748909 -0.00665132 0.00639064
133 1 -6.53218 -6.78959 20.3092 -0.00363692 0.00465457 0.00401691
141 1 -5.25854 -11.6473 19.9999 0 0 0
142 1 -4.47674 -10.5145 19.9999 0 0 0
143 1 -5.09637 -9.19322 20.2885 -0.000190768 -0.000769156 -0.00488226
144 1 -4.3564 -8.00977 20.4797 -0.000905362 -0.0125775 0.00160304
145 1 -5.13178 -6.79405 20.4399 -0.00239176 0.00611634 -0.00749645
161 1 -3.01281 -10.5144 19.9999 0 0 0
162 1 -2.93175 -8.0367 20.4507 -0.0120104 0.00164364 0.00143732
171 1 -2.23133 -11.6474 19.9999 0 0 0
172 1 -2.25224 -9.23655 20.1557 0.00373186 -0.00324558 -0.0017007
173 1 -2.28959 -6.83406 20.3591 -0.00748755 -0.00484872 -0.0025414
181 1 -0.986751 -11.6474 19.9999 0 0 0
182 1 -0.205108 -10.5143 19.9999 0 0 0
183 1 -0.821861 -9.21245 20.1376 -0.000349408 -0.00388496 0.00662161
184 1 -0.101798 -7.99591 20.2464 -0.00745254 -0.006408 0.0101294
185 1 -0.869976 -6.78829 20.2565 -0.00456222 -0.00973592 0.00557993
201 1 1.25901 -10.5143 19.9999 0 0 0
202 1 1.35648 -7.98581 20.0729 -0.00197432 0.00394678 -0.00171818
211 1 2.0406 -11.6474 19.9999 0 0 0
212 1 2.00458 -9.21046 20.1135 0.00368943 0.00356027 0.0136189
213 1 1.92134 -6.69091 20.0461 -0.00275128 0.00511639 0.00958208
221 1 3.28523 -11.6473 19.9999 0 0 0
222 1 4.06705 -10.5143 19.9999 0 0 0
223 1 3.40437 -9.2163 20.0608 -0.00133693 0.00278574 0.0073117
224 1 4.01267 -7.92915 19.8935 -0.00849417 0.0051066 0.00133094
225 1 3.34668 -6.65786 19.8159 0.00440897 0.00141448 -0.00631167
241 1 5.53108 -10.5143 19.9999 0 0 0
242 1 5.43598 -7.85662 19.9839 -0.0103509 0.016186 0.0111418
251 1 6.31174 -11.6474 19.9999 0 0 0
252 1 6.15161 -9.14231 20.0002 -0.001114 0.00346754 0.0101433
253 1 6.15976 -6.64982 19.8972 -0.0070877 0.00247561 0.000151504
261 1 7.55524 -11.6498 19.9999 0 0 0
263 1 7.56084 -9.14838 20.0059 -0.00395419 0.0069381 0.0103609
265 1 7.60323 -6.65087 19.8816 -0.0118 0.000732415 0.00659704
262 1 8.33779 -10.5154 19.9999 0 0 0
264 1 8.28387 -7.90665 19.9897 0.000312468 -0.00220732 0.015251
281 1 9.79556 -10.5245 19.9999 0 0 0
282 1 9.74946 -7.99345 19.975 -0.00227638 -0.0123338 0.00236641
291 1 10.5816 -11.6418 19.9999 0 0 0
292 1 10.5175 -9.20576 19.9023 0.0046023 -0.00220011 -0.00335918
293 1 10.5161 -6.78526 20.0134 -0.00174481 -0.00420603 0.00081403
301 1 11.8019 -11.7522 19.9999 0 0 0
302 1 12.7161 -10.5156 19.9999 0 0 0
303 1 11.8934 -9.22642 19.9999 0 0 0
304 1 12.655 -8.00627 19.9999 0 0 0
305 1 11.8992 -6.77596 19.9999 0 0 0
321 1 14.087 -10.4984 19.9999 0 0 0
322 1 14.0714 -8.01298 19.9999 0 0 0
66 1 -13.0658 -5.54976 19.9999 0 0 0
67 1 -13.7179 -4.30197 19.9999 0 0 0
68 1 -13.0406 -3.0891 19.9999 0 0 0
69 1 -13.6883 -1.86008 19.9999 0 0 0
70 1 -13.0424 -0.636745 19.9999 0 0 0
83 1 -11.5387 -5.54743 19.9999 0 0 0
84 1 -11.5566 -3.09089 19.9999 0 0 0
85 1 -11.5625 -0.637245 19.9999 0 0 0
94 1 -10.8116 -4.29282 20.0052 -0.00941847 -0.0057307 0.00048894
95 1 -10.8779 -1.88347 20.0102 -0.000207144 0.00071407 0.0052332
106 1 -8.71428 -5.54644 20.1048 -0.00234743 -0.0126798 0.0133414
107 1 -9.38674 -4.30982 20.071 0.0017557 -0.00804729 0.0163915
108 1 -8.6741 -3.081 20.2893 -0.000115416 -0.0167782 -0.000623576
109 1 -9.4042 -1.86916 20.165 0.00163113 0.00423762 -0.000774317
110 1 -8.69238 -0.685286 20.3462 0.00168181 -0.00247837 -0.0100509
125 1 -7.28164 -0.640773 20.7317 0.00256604 -0.00169086 -0.0152608
124 1 -7.2622 -3.08995 20.6013 0.00496401 -0.00923037 -0.00181438
123 1 -7.32824 -5.6197 20.3997 0.00125964 0.002444 0.00648728
48 1 -0.213935 -1.44257 15.7762 -0.00670595 0.00644977 -0.0232776
186 1 -0.298982 -5.46677 20.0181 -0.00109426 0.00856777 -0.00444502
134 1 -6.66482 -4.34651 20.5541 0.00188436 -0.00263457 0.00740584
163 1 -3.00886 -5.56569 20.463 0.00317721 -0.00557308 -0.00992978
24 1 -0.86682 -0.173054 15.7552 -0.000596198 -0.00359073 -0.0219705
135 1 -6.51183 -1.85295 20.7659 0.00991678 -0.000526397 -0.000460499
146 1 -4.41192 -5.5681 20.6002 0.00996183 -0.00169697 0.00935535
147 1 -5.18244 -4.34925 20.711 0.00630415 -0.00142139 0.00741402
148 1 -4.43598 -3.12456 20.7408 0.00855077 0.00352428 0.0118947
149 1 -5.0839 -1.85316 20.8472 -0.00394836 -0.00833524 0.00217306
164 1 -3.05866 -3.10258 20.5658 0.000429896 0.00282689 0.00876018
174 1 -2.38868 -4.2913 20.3072 0.0015703 -0.00287717 -0.00281737
150 1 -4.35131 -0.635351 20.8322 -1.21407e-05 0.00528833 0.00284975
187 1 -0.998067 -4.27356 20.1189 -0.00260281 -2.35838e-05 -0.0124081
165 1 -3.05881 -0.619769 20.3156 0.0018236 -0.00159185 0.00641139
175 1 -2.35054 -1.85994 20.2527 -0.004267 -0.00447237 0.00362286
188 1 -0.252727 -3.08137 19.8283 -0.0132408 0.0062964 -0.0102885
189 1 -0.986737 -1.89063 19.8032 -0.00168611 0.00878585 0.00181095
190 1 -0.346348 -0.633731 19.5491 0.00616882 0.00534352 0.000770892
46 1 1.26055 -1.51953 15.811 0.00533403 2.11209e-05 -0.0165725
203 1 1.13563 -5.46588 20.0577 0.000874226 -0.00114986 -0.00392151
226 1 4.07202 -5.4859 19.8429 -0.0005297 0.00442533 -0.00927388
243 1 5.51173 -5.39964 19.7899 0.0043462 -0.00108783 -0.00113046
254 1 6.24378 -4.18214 19.8715 -0.00743026 -0.00736002 0.00802394
255 1 6.12848 -1.80864 20.2275 -0.000111675 -0.00765309 -0.00481503
22 1 1.92183 -0.239291 15.8941 -0.00246971 5.49501e-06 -0.0214542
227 1 3.32215 -4.2759 19.8354 -0.0113096 0.000810884 -0.00836707
244 1 5.48161 -2.99629 19.9413 -0.00482805 0.00834354 0.00277597
214 1 1.91017 -4.29833 19.8875 -0.00827733 -0.000720673 -0.00993022
228 1 4.05683 -3.0924 19.7514 -0.00535912 -0.00122783 -0.00482349
245 1 5.38466 -0.638708 20.1187 0.000167504 -0.000425832 -0.0167998
229 1 3.27671 -1.9035 19.6323 -0.00410302 -0.000934289 -0.00571191
230 1 3.99251 -0.671775 19.7289 -0.00559235 0.00115716 -0.00700123
204 1 1.18151 -3.06217 19.7562 -0.00278873 0.00720872 -0.0158872
215 1 1.84643 -1.84678 19.5256 0.00483145 0.00191576 -0.0109218
205 1 1.08617 -0.638761 19.4245 -0.00164949 0.00482254 -0.00196273
269 1 7.5867 -1.78618 20.2838 -0.00115147 -0.00340892 -0.00527714
267 1 7.72445 -4.18206 19.8638 -0.014937 -0.00967801 0.00458151
266 1 8.37051 -5.42718 19.8595 0.00145479 -0.000293655 0.011189
268 1 8.39775 -2.94516 20.0302 0.00219463 0.00151091 0.00179491
270 1 8.36365 -0.629607 20.5084 0.0038863 0.00108229 -0.0153828
283 1 9.82262 -5.55276 19.9058 -0.00141133 -0.00178216 0.0108415
284 1 9.81012 -3.07574 19.9742 -0.00210754 -0.00626103 -0.00294574
285 1 9.78415 -0.648568 20.2874 -6.62108e-05 0.00281131 0.00164587
294 1 10.5292 -4.31719 19.9418 0.00494806 -0.00612042 0.0042397
295 1 10.5033 -1.88416 20.052 0.00289301 0.00617647 -0.000958828
306 1 12.6496 -5.55341 19.9999 0 0 0
307 1 11.9041 -4.32686 19.9999 0 0 0
308 1 12.647 -3.09734 19.9999 0 0 0
309 1 11.9037 -1.86828 19.9999 0 0 0
310 1 12.6457 -0.637745 19.9999 0 0 0
323 1 14.0539 -5.56516 19.9999 0 0 0
324 1 14.0472 -3.10129 19.9999 0 0 0
325 1 14.0438 -0.638188 19.9999 0 0 0
71 1 -13.6826 0.591886 19.9999 0 0 0
72 1 -13.0424 1.82079 19.9999 0 0 0
73 1 -13.6895 3.04359 19.9999 0 0 0
74 1 -13.0413 4.27397 19.9999 0 0 0
75 1 -13.7195 5.48914 19.9999 0 0 0
86 1 -11.5623 1.82169 19.9999 0 0 0
87 1 -11.5564 4.27485 19.9999 0 0 0
96 1 -10.8645 0.55529 20.0159 0.0029713 -0.00114925 0.00851616
97 1 -10.9097 3.04978 20.118 -0.00099206 0.00388728 -0.00131673
98 1 -10.8408 5.46871 20.024 0.00801446 0.00816448 0.00490472
111 1 -9.45194 0.516799 20.2403 0.00605659 -0.0022082 -0.00815231
112 1 -8.6871 1.77208 20.1667 0.00860089 0.00030822 -0.00289021
113 1 -9.448 3.00685 20.1951 0.0130762 0.000806523 0.005468
114 1 -8.69241 4.19933 20.16 0.00657389 0.00373125 0.0101207
115 1 -9.39494 5.48552 20.0262 0.00114472 0.00685336 0.00797561
126 1 -7.29482 1.76848 20.5812 0.00660456 0.00240538 -0.00971043
127 1 -7.24621 4.23792 20.4275 0.00963896 0.00399045 0.0152086
6 1 -0.152583 1.04744 15.8062 0.00575449 0.00148973 -0.0169554
138 1 -6.6326 5.50173 20.4107 0.00841633 -0.00239989 0.0105402
195 1 -0.950455 5.43124 20.0194 -0.0101462 0.00572701 -0.00525625
155 1 -5.17026 5.51745 20.5003 0.0116121 -0.0106005 0.00742964
178 1 -2.34147 5.52474 20.3616 0.00347526 -0.00593664 -0.0087765
137 1 -6.55044 2.96686 20.5461 -0.00541624 0.0123495 0.00481422
153 1 -5.11723 3.0274 20.7075 0.00900958 0.00368892 -0.00596236
154 1 -4.49529 4.25771 20.613 0.0087978 0.0131752 0.012294
136 1 -6.5442 0.580416 20.9002 0.00388021 0.00521132 -0.00439718
151 1 -5.12925 0.587452 20.9167 -0.00249586 0.00513937 -0.00622515
167 1 -3.05068 4.30852 20.3966 0.00648212 -0.00535651 0.00177446
152 1 -4.37152 1.80891 20.6484 -0.000668987 -0.00203605 0.00657183
177 1 -2.36945 3.1168 20.1833 0.0107142 0.00222143 -0.000863398
194 1 -0.291142 4.23076 19.6828 0.00112294 0.00154626 -0.0164274
166 1 -3.02809 1.83781 20.2934 -0.00160991 0.00433163 0.0180834
176 1 -2.38438 0.615771 20.125 -0.00308845 -0.000641559 0.0145387
193 1 -1.0354 3.03459 19.7458 0.000396105 -0.0040879 -0.00739099
191 1 -1.07697 0.569754 19.6326 0.00485123 0.00483808 0.00451444
192 1 -0.34611 1.80114 19.4671 -0.00149987 -0.00723146 -0.00255373
5 1 1.23797 1.03777 15.8327 -0.00112068 0.00557124 -0.0195202
218 1 1.86449 5.46623 19.674 -0.00149385 -0.0104962 -0.0103787
235 1 3.31782 5.47544 19.6628 -0.00796829 0.00250506 -0.00355024
247 1 5.4258 4.16184 19.7232 -0.00243696 -0.000420981 0.00591718
257 1 6.21395 3.0136 19.9321 0.000231083 -0.00681681 -0.00676515
258 1 6.24219 5.36935 19.7404 -0.00968759 -5.35979e-05 0.00375349
234 1 4.00573 4.21309 19.6505 -0.0131654 0.00265147 0.00628516
256 1 6.13576 0.558676 20.3365 -0.00116743 -0.0105658 -0.0104604
246 1 5.44407 1.77997 19.9836 -0.00575874 0.00743076 -0.00928594
233 1 3.28466 2.95243 19.5975 -0.0065587 -0.00195346 -0.0059002
231 1 3.21419 0.542701 19.5546 -0.00834815 0.0074951 -0.000364106
232 1 4.04112 1.72496 19.6682 -0.0114115 -0.000932631 -0.00835631
207 1 1.15356 4.22763 19.6284 0.00759814 -0.00266535 -0.0132842
217 1 1.8681 3.01918 19.4397 -0.00931738 -0.000785423 -0.00767939
206 1 1.07015 1.79931 19.3643 -0.0025284 6.4018e-05 -0.00599353
216 1 1.81489 0.57468 19.2928 -0.00480411 0.00335458 4.0376e-05
273 1 7.64987 2.94817 19.9083 -0.00439503 -0.00919056 0.00470513
271 1 7.58675 0.566065 20.5005 4.77534e-05 0.00368304 -0.0129824
275 1 7.66028 5.38364 19.6736 -0.0145282 0.0110709 0.00287348
272 1 8.34982 1.75479 20.2842 -0.0026829 0.00509504 -0.00977168
274 1 8.41591 4.16629 19.7719 -0.00364353 0.00646361 0.00730256
286 1 9.79801 1.83223 20.1914 -0.00111553 -0.00560013 -0.00189149
287 1 9.8228 4.26303 19.891 -0.00609182 0.00448962 0.00162175
296 1 10.5111 0.58251 20.2173 0.00618675 -0.00158696 -0.00260507
297 1 10.4987 3.03412 20.0659 -0.00119491 -0.00224486 0.00292115
298 1 10.5232 5.52147 19.9202 -5.92602e-05 0.00449557 -7.92863e-05
311 1 11.9034 0.592385 19.9999 0 0 0
312 1 12.6457 1.82255 19.9999 0 0 0
313 1 11.9038 3.05326 19.9999 0 0 0
314 1 12.6466 4.28301 19.9999 0 0 0
315 1 11.9041 5.51379 19.9999 0 0 0
326 1 14.0439 1.82305 19.9999 0 0 0
327 1 14.0468 4.28589 19.9999 0 0 0
76 1 -13.0678 6.73987 19.9999 0 0 0
77 1 -13.743 7.99662 19.9999 0 0 0
78 1 -13.076 9.22053 19.9999 0 0 0
79 1 -13.6781 10.6114 19.9999 0 0 0
80 1 -13.0646 11.9529 19.9999 0 0 0
88 1 -11.5395 6.7281 19.9999 0 0 0
89 1 -11.5535 9.18478 19.9999 0 0 0
90 1 -11.7099 11.6077 19.9999 0 0 0
99 1 -10.8673 7.94546 19.9182 -0.00078788 0.00149672 0.00399295
100 1 -10.9027 10.4758 19.9999 0 0 0
116 1 -8.7203 6.74126 19.9196 0.00545614 -0.00394372 0.00977808
117 1 -9.39804 7.97281 19.8947 -0.00271132 -0.00646794 0.00636398
118 1 -8.73102 9.17455 19.9883 -0.0157932 -0.00663485 -0.00265657
119 1 -9.37207 10.4804 19.9999 0 0 0
120 1 -8.62688 11.6228 19.9999 0 0 0
130 1 -7.38724 11.6024 19.9999 0 0 0
128 1 -7.30592 6.75602 20.1631 0.00258443 -0.000508833 0.00522201
129 1 -7.27753 9.18249 20.1688 -0.000290189 0.00085852 -0.00288221
139 1 -6.62452 7.96467 20.2821 -0.00757079 0.0118712 0.00142433
140 1 -6.60892 10.469 19.9999 0 0 0
156 1 -4.42484 6.75538 20.4554 -0.000972967 0.00506116 0.00540768
157 1 -5.13933 7.96084 20.3958 -0.00970491 0.00319071 -0.00610402
158 1 -4.41095 9.15843 20.2632 -0.00414398 -0.00678684 0.00161474
159 1 -5.14663 10.4689 19.9999 0 0 0
160 1 -4.36691 11.6023 19.9999 0 0 0
168 1 -3.00485 6.73986 20.5017 0.000521333 -7.68857e-05 0.00131053
169 1 -3.01091 9.15956 20.2577 -0.0102512 -0.000468688 -0.00527671
170 1 -3.12269 11.6018 19.9999 0 0 0
179 1 -2.26969 7.93701 20.2715 0.000480507 0.0132711 0.000919736
180 1 -2.34103 10.4689 19.9999 0 0 0
196 1 -0.192328 6.65294 19.9962 -0.00482787 0.00427368 0.00975273
197 1 -0.855375 7.90396 20.0683 3.52808e-05 -0.00952049 0.00371016
198 1 -0.152843 9.19464 19.9212 0.00251744 -0.00564589 0.00663508
199 1 -0.876963 10.4688 19.9999 0 0 0
200 1 -0.0953724 11.6018 19.9999 0 0 0
208 1 1.21661 6.66008 19.831 -0.0100495 0.001437 0.00095473
209 1 1.26234 9.17456 19.963 0.00428893 -0.00689752 -0.000385724
210 1 1.14924 11.6018 19.9999 0 0 0
219 1 2.00191 7.93497 19.9139 -0.00487262 -0.0073731 0.00717524
220 1 1.93091 10.4688 19.9999 0 0 0
236 1 4.06767 6.64965 19.7309 -0.00476842 -0.00526869 -0.00386588
237 1 3.42107 7.91674 19.9008 -0.0100463 -0.0052663 0.00674807
238 1 4.08445 9.20169 20.025 0.00103181 -0.00284873 0.00193741
239 1 3.39506 10.4687 19.9999 0 0 0
240 1 4.17656 11.6018 19.9999 0 0 0
248 1 5.49013 6.57624 19.7212 -0.00345242 0.00755924 0.00518621
249 1 5.50492 9.10618 20.0394 -0.00633546 -0.00396469 -0.00080853
250 1 5.4212 11.6017 19.9999 0 0 0
259 1 6.15365 7.85892 19.8346 0.000693527 0.00504754 0.00817056
260 1 6.20335 10.4685 19.9999 0 0 0
277 1 7.59676 7.86561 19.9697 -0.000346575 -3.00748e-05 0.00670496
276 1 8.28156 6.62429 19.8475 -0.00244064 0.00415567 0.00367802
278 1 8.27345 9.11013 20.0413 0.00689487 0.00748151 0.00707303
279 1 7.66711 10.4687 19.9999 0 0 0
280 1 8.44529 11.6024 19.9999 0 0 0
288 1 9.72249 6.73063 19.9144 -0.00496901 0.00350486 0.00233939
289 1 9.70277 9.195 19.9021 -0.00635932 -0.00330307 0.0154028
290 1 9.6873 11.6101 19.9999 0 0 0
299 1 10.4481 7.97144 19.9409 -0.00438467 -0.00329987 0.00987956
300 1 10.4752 10.4755 19.9999 0 0 0
316 1 12.6473 6.74288 19.9999 0 0 0
317 1 11.9051 7.97805 19.9999 0 0 0
318 1 12.6583 9.19198 19.9999 0 0 0
319 1 11.9246 10.4937 19.9999 0 0 0
320 1 12.7709 11.5297 19.9999 0 0 0
328 1 14.0456 6.75188 19.9999 0 0 0
329 1 14.0237 9.17042 19.9999 0 0 0
330 1 13.9415 11.792 19.9999 0 0 0
