ITEM: TIMESTEP
8500
ITEM: NUMBER OF ATOMS
330
ITEM: BOX BOUNDS pp pp pp
-1.4715758017245314e+01 1.5057610017245315e+01
-1.2710055654020760e+01 1.2664508654020761e+01
-5.0001035148846022e+01 1.0000103514884636e+02
ITEM: ATOMS id type x y z vx vy vz
8 1 -0.743666 -1.34608 12.927 0.00807265 -0.000278672 0.0026915
27 1 -1.42768 -0.110947 12.8631 0.000651046 -0.00100555 0.00181642
28 1 -1.39613 -2.21361 13.8488 0.00269751 -0.000719884 0.0061542
42 1 -2.51552 -0.261105 13.8204 0.00839915 0.00832798 0.00604308
44 1 -2.52068 -1.53389 14.3972 0.00646714 0.00284827 0.0143116
20 1 -2.9721 -1.77119 15.7206 0.00469416 0.00255643 0.00451694
36 1 -1.1746 -3.36776 16.0863 0.00289201 0.000791479 0.00630856
52 1 -0.717467 -3.16467 14.7114 0.000967951 0.00160318 0.0127705
7 1 0.681922 -1.34975 12.9848 -0.00239798 -0.000572441 0.00722154
25 1 1.36662 -0.0852478 12.9131 0.00544661 0.000314031 0.0122612
26 1 1.35107 -2.16081 13.9686 -0.00361145 0.00155638 0.00748577
38 1 2.4416 -0.215511 13.8865 -0.0110736 0.00637021 0.00585331
40 1 2.46945 -1.50689 14.524 -0.00648243 0.00101545 0.0135212
16 1 2.8998 -1.72422 15.8694 -0.00656854 -0.000621107 0.00791893
35 1 1.10551 -3.34637 16.0778 -0.00120667 -0.000706587 0.0122486
50 1 0.702585 -3.12861 14.7524 -0.000552685 -0.00164449 0.00642773
10 1 -0.00406575 2.80734 14.2874 0.000801191 0.00245014 0.0101938
32 1 -1.16414 2.18603 13.7171 -0.00405376 -0.000512054 0.00562039
51 1 -0.740444 1.17535 12.8314 0.000907405 -9.65035e-06 -0.00100577
3 1 -3.36219 0.614555 16.0197 0.00557686 0.000646971 0.00709553
9 1 -0.00195918 3.39136 15.6211 0.00061626 0.00475314 0.00610145
18 1 -2.90481 0.825107 14.6412 0.0109445 -0.00197676 0.0122484
54 1 -2.33142 2.67029 15.9354 0.0071053 0.00111688 0.00423697
56 1 -2.26315 2.07423 14.6025 0.00420071 0.00265176 0.0145988
31 1 1.14467 2.18225 13.7489 0.000864473 0.000835303 0.00163675
49 1 0.671175 1.14204 12.824 -0.000486426 -0.000606611 0.000555372
1 1 3.34909 0.574995 16.0997 0.000326391 -0.00337929 0.0098423
14 1 2.85393 0.824258 14.7672 -0.00600752 -0.0022222 0.00750018
53 1 2.23886 2.64875 16.0013 -0.00250195 0.003975 0.00422127
55 1 2.22591 2.06643 14.707 -0.00479084 0.00343887 0.00736686
61 1 -13.6674 -11.9461 19.9999 0 0 0
62 1 -13.1228 -10.6724 19.9999 0 0 0
63 1 -13.7825 -9.34696 19.9999 0 0 0
64 1 -13.0772 -8.00396 19.9999 0 0 0
65 1 -13.7542 -6.79742 19.9999 0 0 0
81 1 -11.507 -10.5408 19.9999 0 0 0
82 1 -11.5331 -8.01671 19.9999 0 0 0
91 1 -10.7591 -11.6424 19.9999 0 0 0
92 1 -10.8368 -9.22611 20.0009 0.00820636 -0.000778761 -0.00120855
93 1 -10.8499 -6.79956 19.936 0.0052037 -0.00364993 -0.000847862
101 1 -9.52473 -11.6468 19.9999 0 0 0
102 1 -8.74136 -10.5124 19.9999 0 0 0
103 1 -9.43535 -9.22247 19.9736 -0.00148245 0.00376317 -0.000547835
104 1 -8.65347 -8.05274 19.8473 -0.00426508 -0.0034282 -0.00374393
105 1 -9.35604 -6.8515 19.8171 -0.00525232 0.00106404 -0.00293199
121 1 -7.27873 -10.5146 19.9999 0 0 0
122 1 -7.19966 -7.97589 19.698 0.0034008 -0.00172758 -0.00331791
131 1 -6.50232 -11.6488 19.9999 0 0 0
132 1 -6.50443 -9.20732 19.8049 6.92914e-05 -0.00799819 -0.00173815
133 1 -6.3619 -6.77228 19.5502 -0.00131685 -0.00720027 0.000907242
141 1 -5.25854 -11.6473 19.9999 0 0 0
142 1 -4.47674 -10.5145 19.9999 0 0 0
143 1 -5.08554 -9.21753 19.7572 0.0024872 -0.0010053 -0.00138704
144 1 -4.28736 -7.99554 19.636 -0.00413106 -0.00926835 0.0053125
145 1 -4.88905 -6.70256 19.6218 0.0072314 0.00945365 0.00856918
161 1 -3.01281 -10.5144 19.9999 0 0 0
162 1 -2.82184 -7.96913 19.7626 -0.00102665 0.00740372 0.00993221
171 1 -2.23133 -11.6474 19.9999 0 0 0
172 1 -2.20135 -9.21483 19.8341 -0.00169877 0.000277807 0.00424618
173 1 -1.96308 -6.78266 20.0803 0.00726639 0.00310914 0.0167952
181 1 -0.986751 -11.6474 19.9999 0 0 0
182 1 -0.205108 -10.5143 19.9999 0 0 0
183 1 -0.790827 -9.21959 19.9072 0.00302802 0.000836134 0.00560114
184 1 0.0594327 -8.03634 20.0137 0.00494266 -0.00219367 0.00981549
185 1 -0.544218 -6.80807 20.2538 -0.00657924 -0.000119904 0.0120053
201 1 1.25901 -10.5143 19.9999 0 0 0
202 1 1.49622 -8.00086 19.9925 0.00120134 -0.00494251 0.010412
211 1 2.0406 -11.6474 19.9999 0 0 0
212 1 2.04635 -9.2771 19.9047 0.00417819 -0.00187061 0.00515996
213 1 2.21755 -6.75002 20.2502 0.00339942 -0.000757684 0.0107039
221 1 3.28523 -11.6473 19.9999 0 0 0
222 1 4.06705 -10.5143 19.9999 0 0 0
223 1 3.43941 -9.24113 19.8649 -0.00545939 0.00410571 0.00197943
224 1 4.18715 -8.01605 19.7788 -0.0156582 0.00509744 0.0086515
225 1 3.58489 -6.73151 20.0743 0.00051801 -0.000765245 0.0129423
241 1 5.53108 -10.5143 19.9999 0 0 0
242 1 5.57421 -8.11762 19.6799 -0.00729934 0.0136274 0.000990222
251 1 6.31174 -11.6474 19.9999 0 0 0
252 1 6.27767 -9.3488 19.8204 -0.0128837 -0.0070353 -0.00117422
253 1 6.18657 -6.86019 19.649 -0.0144097 0.000616244 0.00709822
261 1 7.55524 -11.6498 19.9999 0 0 0
265 1 7.56542 -6.97246 19.5468 -0.0126186 -0.0014059 -0.00488772
263 1 7.68362 -9.29533 19.8386 -0.00738154 -0.0014119 -0.00212897
262 1 8.33779 -10.5154 19.9999 0 0 0
264 1 8.40703 -8.11822 19.7146 -0.0095079 -0.00977762 -0.00452349
281 1 9.79556 -10.5245 19.9999 0 0 0
282 1 9.78766 -8.02483 19.8682 -0.00758537 -0.00304157 -0.00384435
291 1 10.5816 -11.6418 19.9999 0 0 0
292 1 10.4992 -9.28244 19.9912 -0.00942657 -0.00274052 -0.000281445
293 1 10.4902 -6.79157 19.8535 0.00248549 -0.00877166 -0.00254449
301 1 11.8019 -11.7522 19.9999 0 0 0
302 1 12.7161 -10.5156 19.9999 0 0 0
303 1 11.8934 -9.22642 19.9999 0 0 0
304 1 12.655 -8.00627 19.9999 0 0 0
305 1 11.8992 -6.77596 19.9999 0 0 0
321 1 14.087 -10.4984 19.9999 0 0 0
322 1 14.0714 -8.01298 19.9999 0 0 0
66 1 -13.0658 -5.54976 19.9999 0 0 0
67 1 -13.7179 -4.30197 19.9999 0 0 0
68 1 -13.0406 -3.0891 19.9999 0 0 0
69 1 -13.6883 -1.86008 19.9999 0 0 0
70 1 -13.0424 -0.636745 19.9999 0 0 0
83 1 -11.5387 -5.54743 19.9999 0 0 0
84 1 -11.5566 -3.09089 19.9999 0 0 0
85 1 -11.5625 -0.637245 19.9999 0 0 0
94 1 -10.7858 -4.31428 19.8822 0.00923636 -0.00386322 -0.000752362
95 1 -10.7562 -1.85738 19.837 -0.000821029 -0.00799738 0.000723433
106 1 -8.58501 -5.69785 19.6678 3.77043e-05 -0.00225433 -0.00274869
107 1 -9.31544 -4.42477 19.6901 -0.00103797 0.00366295 -0.00123166
108 1 -8.55511 -3.23862 19.609 0.00660844 0.00304098 0.000798501
109 1 -9.30839 -1.9536 19.6179 0.00640993 0.00630219 0.00180167
110 1 -8.64204 -0.633886 19.635 0.00683447 0.00390795 0.0105499
4 1 -3.43181 -0.715986 16.5745 0.00394477 -0.00844221 0.00895622
60 1 -2.32036 -2.73477 16.6155 0.00517526 -0.00955425 0.0128845
125 1 -7.17492 -0.695137 19.9895 -0.00393525 -0.00501618 0.0181326
12 1 -0.00437495 -3.48034 16.8763 -9.55501e-05 -0.00882338 -0.00182696
123 1 -7.12659 -5.59235 19.5725 0.00468038 -0.0102144 0.00317527
124 1 -7.10715 -3.24592 19.7378 0.0108854 -0.000587078 0.0139453
19 1 -3.07998 -0.940159 17.8688 0.0043981 0.00281985 0.00857515
58 1 -2.38506 -2.21931 17.9466 0.00132825 -0.00445787 0.00393746
11 1 0.0248243 -2.98728 18.2087 -0.00256191 -0.00214175 0.0108826
34 1 -1.14991 -2.29728 18.6575 0.000768532 7.93234e-05 0.00998662
48 1 -0.667055 -1.15442 19.3227 -0.00298643 -0.00333882 0.00332226
134 1 -6.28758 -4.41589 19.7457 -0.000457069 6.81286e-06 0.0152127
135 1 -6.43017 -1.96166 20.096 0.000671583 0.00638077 0.0220311
146 1 -4.07126 -5.50708 20.0335 0.00903689 0.00539212 0.0182711
147 1 -4.83585 -4.31553 20.1373 0.00108331 0.00183588 0.0164451
148 1 -4.19124 -3.08503 20.5952 -0.0033719 0.00721161 0.0146461
149 1 -5.00724 -1.89485 20.5347 0.00407702 0.000776185 0.0175502
150 1 -4.33997 -0.622062 20.7715 -0.00660525 0.0041753 0.00825405
163 1 -2.6554 -5.56029 20.3411 0.00163595 0.00216611 0.0138425
164 1 -2.75018 -3.10724 21.0007 -0.00328471 0.00170536 0.0161183
165 1 -2.89902 -0.5944 21.1822 -0.00540685 0.000200325 0.0148708
174 1 -1.9666 -4.35032 20.833 0.00584665 0.00996383 0.0115198
175 1 -2.09032 -1.83939 21.3738 -0.00336051 0.000398106 0.0155523
186 1 0.15424 -5.58495 20.6505 -0.00742943 -0.000479089 0.00767682
187 1 -0.519319 -4.34196 21.0007 0.00351175 -0.0041705 0.00358028
188 1 0.14145 -3.1055 21.4052 0.00423441 -0.000829578 0.00713366
189 1 -0.670354 -1.90341 21.6384 -0.0140623 -0.00058054 0.00777794
190 1 0.0596833 -0.640086 21.8895 -0.00266133 -0.0110303 0.00635472
2 1 3.41244 -0.714927 16.6842 0.000250545 -0.00394413 0.00844904
59 1 2.24203 -2.70037 16.6984 -0.000215981 -0.00658991 0.00372612
15 1 3.0599 -0.942598 18.0397 0.0018467 -0.00452477 0.0065265
57 1 2.38166 -2.19328 18.0446 0.00342291 -0.00598787 0.000854068
33 1 1.19617 -2.32859 18.7889 0.00292918 -0.00114518 0.0103328
46 1 0.718112 -1.16184 19.4856 -0.000850058 -0.00147403 0.00151646
203 1 1.5846 -5.58419 20.7 -0.0133661 0.000112717 0.013632
204 1 1.60676 -3.10552 21.4249 0.00597652 0.0103769 0.00775576
205 1 1.5391 -0.627508 21.8665 -0.00452036 -0.00137648 0.00208941
214 1 2.27758 -4.33663 21.0685 -0.00516247 0.0131317 0.0160534
215 1 2.29541 -1.81221 21.6267 -0.00994922 0.00291587 0.00406061
226 1 4.29616 -5.53958 20.3433 -0.00119094 0.00394996 0.0146981
227 1 3.68412 -4.31866 20.8369 -0.0113545 3.49214e-06 0.014852
228 1 4.39002 -3.10683 20.9379 -0.0017185 0.000849531 0.0124658
229 1 3.7518 -1.91663 21.3643 -0.00553242 0.00355993 0.0111192
230 1 4.48065 -0.673208 21.3096 0.00476911 0.00216773 0.00876327
243 1 5.66592 -5.57862 19.9991 0.000951838 -0.00312564 0.0100183
244 1 5.78729 -3.16416 20.5117 -0.00326192 -0.0156766 0.00430627
245 1 5.86359 -0.696359 20.9283 0.000913067 -0.00635261 0.0122618
254 1 6.43431 -4.37315 20.0458 -0.00384916 -0.00362566 0.00998793
255 1 6.48427 -1.92561 20.5085 -0.003649 -0.00419346 0.0121306
269 1 7.82393 -1.98479 20.0214 -0.00286356 -0.00570867 0.0064283
267 1 7.74232 -4.52658 19.6596 -6.41919e-05 -0.00821238 0.00457616
266 1 8.34543 -5.78336 19.5425 -0.0102066 -0.00538655 -0.00306257
268 1 8.46529 -3.246 19.6417 -0.0010601 -0.00146717 0.00588816
270 1 8.42024 -0.677754 19.9055 -0.00753639 -0.00297841 0.00461952
283 1 9.75735 -5.63516 19.6739 0.000574308 -0.00960699 -0.00429605
284 1 9.85763 -3.18282 19.5675 0.0096016 0.00397638 -0.00182886
285 1 9.82504 -0.605843 19.537 -0.00885862 -0.00324005 0.00476023
294 1 10.5281 -4.41666 19.7361 -0.000135746 -0.00751189 -0.00340197
295 1 10.5296 -1.87833 19.6331 0.00303137 0.00824277 -0.000767225
306 1 12.6496 -5.55341 19.9999 0 0 0
307 1 11.9041 -4.32686 19.9999 0 0 0
308 1 12.647 -3.09734 19.9999 0 0 0
309 1 11.9037 -1.86828 19.9999 0 0 0
310 1 12.6457 -0.637745 19.9999 0 0 0
323 1 14.0539 -5.56516 19.9999 0 0 0
324 1 14.0472 -3.10129 19.9999 0 0 0
325 1 14.0438 -0.638188 19.9999 0 0 0
71 1 -13.6826 0.591886 19.9999 0 0 0
72 1 -13.0424 1.82079 19.9999 0 0 0
73 1 -13.6895 3.04359 19.9999 0 0 0
74 1 -13.0413 4.27397 19.9999 0 0 0
75 1 -13.7195 5.48914 19.9999 0 0 0
86 1 -11.5623 1.82169 19.9999 0 0 0
87 1 -11.5564 4.27485 19.9999 0 0 0
96 1 -10.7795 0.614235 19.8177 -0.0190312 -0.000313986 0.00328476
97 1 -10.8236 3.07325 19.8436 -0.0112063 0.00263977 0.00152721
98 1 -10.7702 5.51264 19.8652 0.00778243 -0.00182188 -0.000155767
111 1 -9.31224 0.6282 19.5976 0.000996463 -0.00383978 0.00461181
112 1 -8.61753 1.91682 19.6626 -0.00224777 -0.000713223 0.00813927
113 1 -9.35497 3.14397 19.6326 -0.000487872 0.0064361 0.00202048
114 1 -8.56378 4.34406 19.6283 0.00484448 -0.00710164 0.000377123
115 1 -9.31569 5.52909 19.6941 0.00382385 0.0029548 -0.00333395
30 1 -1.17668 3.31791 16.44 0.00324844 0.000933629 0.00277319
127 1 -7.05906 4.38419 19.737 0.00329467 -0.000188845 0.0106
17 1 -3.05882 1.7737 16.7752 0.00247264 0.00410682 0.00676151
126 1 -7.13625 1.93476 19.9906 -0.000796638 6.39784e-05 0.0175954
41 1 -2.64815 1.55241 18.099 0.0101132 0.00305845 0.0043966
47 1 -0.699304 3.16062 17.7947 -0.000890515 8.14276e-06 0.00541564
6 1 -0.663989 1.24933 19.2768 -0.00186342 0.00375633 0.00896373
23 1 -1.43542 2.19278 18.5742 -0.000195442 -0.00206218 0.00494324
24 1 -1.36285 0.0501735 19.2205 0.00436716 0.00312229 0.0105641
43 1 -2.61165 0.163938 18.5797 0.00214891 -0.0024801 0.0096828
136 1 -6.50339 0.595305 20.1808 0.00135816 0.00344447 0.0129758
137 1 -6.35417 3.14257 20.0348 -0.00116686 -0.00438142 0.0179855
138 1 -6.30341 5.59122 19.674 0.00796225 0.00171478 0.0131418
151 1 -5.04926 0.647985 20.489 -0.00244433 -0.000452469 0.0108841
152 1 -4.22567 1.85827 20.7368 0.000106403 -0.00699141 0.0141252
153 1 -4.90326 3.09487 20.4085 0.0025782 -0.00322953 0.0136913
154 1 -4.10169 4.27131 20.3801 -0.00206545 -0.00865498 0.0129915
155 1 -4.83708 5.47317 19.9452 -0.000242897 -0.00282302 0.0143334
166 1 -2.81092 1.86973 21.1782 -0.00364501 -0.000380696 0.0140768
167 1 -2.65282 4.29966 20.6941 -0.00369976 -0.00386483 0.0111566
176 1 -2.15753 0.600917 21.4797 -0.00796036 0.00235041 0.0145959
177 1 -1.96528 3.0506 21.1629 -0.00771181 0.000151823 0.0137698
178 1 -1.94435 5.55601 20.4026 -0.00278983 -0.00286823 0.0143717
191 1 -0.655726 0.616031 21.7397 -0.00250505 0.00313679 0.00410609
192 1 0.125999 1.84577 21.6755 -0.0044547 0.00384258 0.000135624
193 1 -0.510301 3.13612 21.3724 -0.00515528 -0.0028959 0.0110882
194 1 0.15669 4.39046 21.006 -0.00391216 0.0034546 0.00934748
195 1 -0.514406 5.61724 20.5681 -0.00311115 -0.0011693 0.00460651
29 1 1.14104 3.3536 16.4941 -0.00694319 0.00568052 0.00392525
13 1 2.96291 1.74268 16.8698 -0.00218375 -0.00042788 0.0061618
37 1 2.62806 1.56025 18.2428 0.00235869 -0.00108842 0.011972
45 1 0.745673 3.15853 17.8233 0.00101754 -0.00151965 0.0107224
5 1 0.761715 1.28104 19.4516 -0.00111055 -0.000887491 0.00897766
21 1 1.48791 2.26714 18.733 -0.00714755 0.00327752 0.00849232
22 1 1.43787 0.044334 19.5725 -0.00998567 0.00134406 0.00526407
39 1 2.63762 0.224592 18.7927 0.0047725 0.00361248 0.00743699
206 1 1.57261 1.87633 21.7031 -0.000768649 -0.00494532 0.000887039
207 1 1.58084 4.36317 21.115 0.00253244 -0.0127036 0.0164645
216 1 2.31105 0.622927 21.8157 0.0050776 -0.00475019 -2.0933e-05
217 1 2.28822 3.10066 21.4141 0.00463973 -0.0076864 0.00936088
218 1 2.26872 5.55164 20.6552 -0.00191959 0.00110409 0.0128533
231 1 3.80356 0.598922 21.5848 0.00755823 0.0012089 0.00460692
232 1 4.45396 1.80059 21.2765 -0.00696725 0.000155221 0.00908083
233 1 3.74751 3.06029 21.2221 -0.00590136 -0.00248211 0.0113104
234 1 4.3465 4.28069 20.7476 -0.00142991 -0.0065033 0.0135401
235 1 3.6653 5.50869 20.446 -0.00915441 -0.00456025 0.0157351
246 1 5.81343 1.87237 20.824 -0.00258626 0.00445952 0.00992042
247 1 5.69981 4.31607 20.3535 -0.0129577 0.0053545 0.00839836
256 1 6.42981 0.569169 20.6726 -0.0180311 0.00650912 0.020021
257 1 6.41825 3.074 20.3343 -0.00648537 0.00324848 0.00634605
258 1 6.22856 5.58864 19.8768 -0.00241883 -0.00250462 0.0092148
271 1 7.7877 0.616075 20.1821 -0.0118532 -0.00430469 0.0114613
273 1 7.79659 3.13175 19.8846 -0.00149607 0.0125146 0.00367438
275 1 7.61495 5.64113 19.5574 -0.00249021 0.0122123 0.00321733
272 1 8.42788 1.85986 19.8251 -0.00754235 0.00541719 0.00743857
274 1 8.34825 4.43623 19.5904 0.000807595 0.0101325 0.00330451
286 1 9.85501 1.86995 19.5371 -0.000782084 -0.00400148 0.000761948
287 1 9.79559 4.38195 19.5975 0.000637067 0.00450186 -0.00219736
296 1 10.5519 0.623273 19.605 -0.00439615 -0.00161179 -0.00442869
297 1 10.5401 3.15101 19.6818 -0.00139056 0.00113687 -0.00377494
298 1 10.4986 5.56603 19.7717 0.00100928 0.00782741 -0.00403395
311 1 11.9034 0.592385 19.9999 0 0 0
312 1 12.6457 1.82255 19.9999 0 0 0
313 1 11.9038 3.05326 19.9999 0 0 0
314 1 12.6466 4.28301 19.9999 0 0 0
315 1 11.9041 5.51379 19.9999 0 0 0
326 1 14.0439 1.82305 19.9999 0 0 0
327 1 14.0468 4.28589 19.9999 0 0 0
76 1 -13.0678 6.73987 19.9999 0 0 0
77 1 -13.743 7.99662 19.9999 0 0 0
78 1 -13.076 9.22053 19.9999 0 0 0
79 1 -13.6781 10.6114 19.9999 0 0 0
80 1 -13.0646 11.9529 19.9999 0 0 0
88 1 -11.5395 6.7281 19.9999 0 0 0
89 1 -11.5535 9.18478 19.9999 0 0 0
90 1 -11.7099 11.6077 19.9999 0 0 0
99 1 -10.8377 7.95798 19.9664 0.000770003 -0.00367275 -0.000972927
100 1 -10.9027 10.4758 19.9999 0 0 0
116 1 -8.61397 6.77977 19.72 0.000689167 0.00623808 -0.00475077
117 1 -9.37561 7.93639 19.8942 -0.00528716 -0.0100098 -0.00323519
118 1 -8.70747 9.16117 19.924 -0.00102645 -0.002985 -0.00324011
119 1 -9.37207 10.4804 19.9999 0 0 0
120 1 -8.62688 11.6228 19.9999 0 0 0
130 1 -7.38724 11.6024 19.9999 0 0 0
128 1 -7.14741 6.74102 19.6016 0.00531021 0.00354139 0.000112341
129 1 -7.28274 9.19175 19.8293 -0.00414995 0.0077001 -0.00376516
139 1 -6.50678 8.02638 19.6303 0.000154071 0.00205908 -0.000976459
140 1 -6.60892 10.469 19.9999 0 0 0
156 1 -4.14762 6.75057 19.8149 0.0025412 -0.00373398 0.0117372
157 1 -5.01475 7.98476 19.6137 -0.000501107 -0.0081185 0.00595725
158 1 -4.357 9.23619 19.7164 -0.0088984 -0.00066199 0.00402358
159 1 -5.14663 10.4689 19.9999 0 0 0
160 1 -4.36691 11.6023 19.9999 0 0 0
168 1 -2.72001 6.74853 20.0059 0.00330946 -0.00300585 0.00897239
169 1 -2.90823 9.18927 19.8174 0.00570843 -0.000256976 0.00789471
170 1 -3.12269 11.6018 19.9999 0 0 0
179 1 -2.05378 8.01641 19.9275 0.00497466 0.000684984 0.00956442
180 1 -2.34103 10.4689 19.9999 0 0 0
196 1 0.162233 6.84771 20.2865 0.00646574 -0.00434413 0.0100471
197 1 -0.650789 8.06468 20.0596 -0.00330701 -0.000480929 0.0110003
198 1 -0.0160135 9.23466 20.015 0.00718334 -0.0042807 0.00851258
199 1 -0.876963 10.4688 19.9999 0 0 0
200 1 -0.0953724 11.6018 19.9999 0 0 0
208 1 1.57363 6.77393 20.2955 -0.000204521 -0.00561201 0.0127171
209 1 1.33959 9.19093 20.0017 0.00259084 0.00349591 0.00568032
210 1 1.14924 11.6018 19.9999 0 0 0
219 1 2.14047 8.00292 20.0325 -0.00304361 -0.00599362 0.00830485
220 1 1.93091 10.4688 19.9999 0 0 0
236 1 4.19784 6.77891 20.0215 -0.00910807 -0.0124252 0.0129819
237 1 3.49979 8.0342 19.9441 0.00168719 -0.0123094 0.0086171
238 1 4.13424 9.2535 19.8358 0.00130841 -0.00940041 0.000887947
239 1 3.39506 10.4687 19.9999 0 0 0
240 1 4.17656 11.6018 19.9999 0 0 0
248 1 5.55228 6.84496 19.824 -0.00434653 -0.00890999 0.00751007
249 1 5.51415 9.25589 19.7457 -0.00051763 -0.00701433 0.000113838
250 1 5.4212 11.6017 19.9999 0 0 0
259 1 6.18545 8.0579 19.6292 -0.0200099 -0.00510834 0.00269942
260 1 6.20335 10.4685 19.9999 0 0 0
277 1 7.60482 8.02306 19.6142 -0.0135621 0.00630905 -0.0052182
276 1 8.35121 6.84682 19.5729 -0.0107575 0.00650075 -0.00401331
278 1 8.38456 9.17955 19.8707 -0.00947941 0.00602147 -0.00276725
279 1 7.66711 10.4687 19.9999 0 0 0
280 1 8.44529 11.6024 19.9999 0 0 0
288 1 9.78806 6.81613 19.7622 -0.00453469 0.00606724 -0.00650225
289 1 9.7659 9.22335 19.963 -0.00378953 0.00132218 -0.00204538
290 1 9.6873 11.6101 19.9999 0 0 0
299 1 10.4795 8.00968 19.9314 0.00165839 0.0130125 -0.00219765
300 1 10.4752 10.4755 19.9999 0 0 0
316 1 12.6473 6.74288 19.9999 0 0 0
317 1 11.9051 7.97805 19.9999 0 0 0
318 1 12.6583 9.19198 19.9999 0 0 0
319 1 11.9246 10.4937 19.9999 0 0 0
320 1 12.7709 11.5297 19.9999 0 0 0
328 1 14.0456 6.75188 19.9999 0 0 0
329 1 14.0237 9.17042 19.9999 0 0 0
330 1 13.9415 11.792 19.9999 0 0 0
