ITEM: TIMESTEP
29500
ITEM: NUMBER OF ATOMS
330
ITEM: BOX BOUNDS pp pp pp
-1.4715758017245314e+01 1.5057610017245315e+01
-1.2710055654020760e+01 1.2664508654020761e+01
-5.0001035148846022e+01 1.0000103514884636e+02
ITEM: ATOMS id type x y z vx vy vz
44 1 -0.934558 -1.43398 3.14364 -0.00256123 -0.000815979 -0.0150287
28 1 0.320413 -2.00792 2.70309 0.00345486 0.000116688 -0.0160108
8 1 1.07732 -1.05287 1.95956 0.00296124 -0.00363401 -0.0231018
7 1 2.47531 -1.07034 2.11599 0.00287663 0.00254913 -0.0187478
26 1 3.1415 -2.01196 2.93394 0.000308799 0.00355143 -0.0261112
38 1 4.37555 -0.0435964 3.07185 0.00566679 0.000632039 -0.015055
52 1 0.931629 -2.96592 3.54545 0.000338339 -0.00110613 -0.0205653
42 1 -0.872168 -0.0532033 2.82086 0.00439593 -0.007593 -0.016426
18 1 -1.40938 0.94711 3.61372 0.00205487 -0.00533196 -0.0132437
27 1 0.287281 0.174687 2.0037 0.0059282 -0.00124053 -0.0209062
51 1 1.10388 1.3617 2.08948 0.00293504 -0.000182472 -0.0152302
25 1 3.19208 0.17183 2.25754 0.0140794 0.0110688 -0.0205156
49 1 2.48992 1.32675 2.22974 0.00122997 -8.6919e-05 -0.0290531
32 1 0.582135 2.31558 3.0543 -0.00166078 -0.008558 -0.0171507
31 1 2.85212 2.38039 3.15726 0.0067877 0.00121458 -0.0174326
20 1 -1.50635 -1.77132 4.42888 -0.000387698 -0.00348029 -0.014611
4 1 -2.03374 -0.770193 5.27769 -0.00586596 -0.00442214 -0.0179054
60 1 -0.805358 -2.72481 5.25416 -0.0030946 0.000821728 -0.0243345
19 1 -1.64875 -1.07437 6.61036 -0.00346843 0.00187609 -0.0199002
58 1 -0.911701 -2.29541 6.64419 -0.004054 0.00666681 -0.0197753
34 1 0.16262 -2.52995 7.54145 0.00798779 -0.000222632 -0.0185219
43 1 -1.26445 -0.118554 7.55606 -0.00241283 -0.000385981 -0.0182564
24 1 -0.227107 -0.354257 8.51053 0.00420654 -0.00117835 -0.0137814
36 1 0.39076 -3.35694 4.80874 0.00400533 0.00379429 -0.0169113
40 1 4.28392 -1.41888 3.52642 0.00199697 0.00145876 -0.0300135
50 1 2.34588 -2.95666 3.64059 0.00250584 0.00846678 -0.019638
16 1 4.627 -1.81887 4.84822 0.00737973 -4.87062e-05 -0.0202721
35 1 2.68918 -3.35841 4.95032 -0.00347709 0.00160844 -0.023388
12 1 1.4884 -3.57886 5.70927 0.000262597 0.00687449 -0.0137994
2 1 4.96225 -0.779749 5.78911 0.00526426 -0.00250041 -0.0170507
59 1 3.84377 -2.8327 5.52306 0.00669085 0.00431382 -0.0195243
11 1 1.37521 -3.16338 7.08387 0.00157704 0.00304662 -0.0178309
15 1 4.35797 -1.10955 7.04824 0.00674885 0.00192987 -0.0108746
57 1 3.65374 -2.3345 6.87555 0.00252552 -0.00225123 -0.0134042
33 1 2.48496 -2.52719 7.69604 -0.00199358 -0.00278846 -0.0128188
48 1 0.489539 -1.56947 8.52412 0.00614911 0.000161498 -0.0150665
46 1 1.91332 -1.59198 8.61577 0.000569729 0.000772435 -0.0200512
22 1 2.6599 -0.345047 8.76217 -0.00402762 -0.00240711 -0.0165181
39 1 3.77852 -0.15865 7.90011 0.00351726 0.00241895 -0.0121501
56 1 -0.669561 2.1594 3.80175 0.0116737 -0.00199178 -0.013678
3 1 -2.01162 0.609727 4.85976 0.00415258 0.00253081 -0.0120407
54 1 -0.744059 2.5226 5.13956 0.00425579 0.000378065 -0.0186791
17 1 -1.58368 1.6195 5.7793 -0.00663161 0.0040504 -0.0161042
41 1 -1.3182 1.25173 7.14548 -0.00462896 0.00330544 -0.014779
23 1 -0.137346 1.79258 7.77345 -0.000157489 0.000957723 -0.0187961
30 1 0.283214 3.2557 5.81549 -0.00167272 -0.00112808 -0.0177426
10 1 1.66001 2.94675 3.73561 0.00378442 -0.00584189 -0.0186476
14 1 4.72234 0.988852 4.03443 0.00363658 -0.00591156 -0.0222271
55 1 3.96135 2.1876 4.06619 -0.000311291 -0.00305444 -0.0102423
9 1 1.50651 3.38966 5.05667 -0.000573973 -0.00697392 -0.0154611
1 1 5.05579 0.616561 5.39433 -0.00191953 0.000985431 -0.014745
53 1 3.84445 2.5234 5.48762 0.00363449 -0.000218212 -0.0109633
29 1 2.60557 3.1279 5.95925 -0.000726289 -0.00687943 -0.0157785
13 1 4.5203 1.61028 6.29761 0.0043924 0.00258292 -0.0176476
47 1 0.59861 2.84362 7.18073 0.00630882 0.00518606 -0.0217331
37 1 3.86078 1.23788 7.49324 0.00978765 -0.00017546 -0.0184362
45 1 2.02842 2.76411 7.2098 -0.0035694 -0.00222946 -0.0118083
6 1 0.491823 0.887297 8.67503 0.0063727 0.00117739 -0.0251395
21 1 2.64576 1.78263 7.92967 0.00457946 -0.000360169 -0.0207202
5 1 1.91877 0.89405 8.75363 0.00111056 -0.00280814 -0.0198984
61 1 -13.6674 -11.9461 19.9999 0 0 0
62 1 -13.1228 -10.6724 19.9999 0 0 0
63 1 -13.7825 -9.34696 19.9999 0 0 0
64 1 -13.0772 -8.00396 19.9999 0 0 0
65 1 -13.7542 -6.79742 19.9999 0 0 0
81 1 -11.507 -10.5408 19.9999 0 0 0
82 1 -11.5331 -8.01671 19.9999 0 0 0
91 1 -10.7591 -11.6424 19.9999 0 0 0
92 1 -10.8166 -9.26138 19.8862 0.00573364 0.00325513 -0.00583284
93 1 -10.8567 -6.77116 20.0329 -0.00533348 0.00265811 -0.000301318
101 1 -9.52473 -11.6468 19.9999 0 0 0
102 1 -8.74136 -10.5124 19.9999 0 0 0
103 1 -9.35499 -9.21118 19.8865 -0.00325482 0.00633914 -0.00133293
104 1 -8.7349 -7.95194 19.8673 -0.0139643 -0.00428312 0.00124716
105 1 -9.37363 -6.66402 20.0492 -0.0109431 -0.000915638 0.0011655
121 1 -7.27873 -10.5146 19.9999 0 0 0
122 1 -7.29367 -7.95042 19.9546 -0.00412003 -0.00125214 0.00974424
131 1 -6.50232 -11.6488 19.9999 0 0 0
132 1 -6.60291 -9.17832 19.972 -0.00684831 0.00918957 0.00199166
133 1 -6.56663 -6.65591 19.9534 -0.000531858 0.00940243 0.0015482
141 1 -5.25854 -11.6473 19.9999 0 0 0
142 1 -4.47674 -10.5145 19.9999 0 0 0
143 1 -5.18558 -9.2019 19.7694 -0.000638233 -0.00536197 0.00117413
144 1 -4.51885 -7.92816 19.5942 0.0095082 0.00200345 -0.00774567
145 1 -5.15546 -6.63113 19.6684 -0.00441536 -0.00879827 0.000538989
161 1 -3.01281 -10.5144 19.9999 0 0 0
162 1 -3.03002 -7.94102 19.5795 0.00176055 -0.0104813 0.00454168
171 1 -2.23133 -11.6474 19.9999 0 0 0
172 1 -2.29908 -9.18731 19.7394 0.00865946 0.00709812 -0.00173601
173 1 -2.25491 -6.70204 19.5121 -0.00124232 0.00557654 -0.000369583
181 1 -0.986751 -11.6474 19.9999 0 0 0
182 1 -0.205108 -10.5143 19.9999 0 0 0
183 1 -0.886635 -9.12988 19.9865 0.0133788 0.00405939 0.00774548
184 1 -0.0847484 -7.97058 19.8569 6.47567e-05 0.0125858 0.00730649
185 1 -0.765983 -6.68504 19.6525 -0.00797187 0.00483441 0.0102073
201 1 1.25901 -10.5143 19.9999 0 0 0
202 1 1.37274 -7.94271 20.0027 -0.000304932 -0.00175268 0.0130533
211 1 2.0406 -11.6474 19.9999 0 0 0
212 1 2.03012 -9.18303 20.0472 -0.00680805 -0.0037707 -0.00121285
213 1 2.12853 -6.71711 19.9209 -0.000233244 0.00626227 0.00550813
221 1 3.28523 -11.6473 19.9999 0 0 0
222 1 4.06705 -10.5143 19.9999 0 0 0
223 1 3.43643 -9.16966 20.0771 0.00277784 0.00110466 -0.00272916
224 1 4.22044 -7.98747 20.3588 0.00282878 -0.0109978 0.00673929
225 1 3.51798 -6.69909 20.0975 -0.00266208 -0.00842557 0.00624011
241 1 5.53108 -10.5143 19.9999 0 0 0
242 1 5.62991 -8.02078 20.5508 -0.00644762 -0.00507299 0.000345448
251 1 6.31174 -11.6474 19.9999 0 0 0
252 1 6.31129 -9.25269 20.3208 -0.00482191 -0.0032954 0.00545282
253 1 6.39575 -6.75585 20.6344 0.00419122 0.00195901 0.00614478
261 1 7.55524 -11.6498 19.9999 0 0 0
263 1 7.67101 -9.21156 20.252 0.00281152 0.0120714 -0.000541825
265 1 7.7645 -6.73134 20.7047 0.00568639 0.00991308 -0.00362116
262 1 8.33779 -10.5154 19.9999 0 0 0
264 1 8.41045 -7.97113 20.3592 0.00309103 0.00646892 0.00208015
281 1 9.79556 -10.5245 19.9999 0 0 0
282 1 9.76042 -7.9601 20.0369 0.00911365 -0.00611531 -0.00642828
291 1 10.5816 -11.6418 19.9999 0 0 0
292 1 10.5035 -9.22907 19.9851 -0.00282699 0.00459001 0.00166085
293 1 10.4959 -6.7804 20.1937 0.00382822 0.000459908 -0.00550934
301 1 11.8019 -11.7522 19.9999 0 0 0
302 1 12.7161 -10.5156 19.9999 0 0 0
303 1 11.8934 -9.22642 19.9999 0 0 0
304 1 12.655 -8.00627 19.9999 0 0 0
305 1 11.8992 -6.77596 19.9999 0 0 0
321 1 14.087 -10.4984 19.9999 0 0 0
322 1 14.0714 -8.01298 19.9999 0 0 0
66 1 -13.0658 -5.54976 19.9999 0 0 0
67 1 -13.7179 -4.30197 19.9999 0 0 0
68 1 -13.0406 -3.0891 19.9999 0 0 0
69 1 -13.6883 -1.86008 19.9999 0 0 0
70 1 -13.0424 -0.636745 19.9999 0 0 0
83 1 -11.5387 -5.54743 19.9999 0 0 0
84 1 -11.5566 -3.09089 19.9999 0 0 0
85 1 -11.5625 -0.637245 19.9999 0 0 0
94 1 -10.878 -4.3126 19.999 0.00620012 -0.00211621 -0.00229523
95 1 -10.8418 -1.90299 20.0095 0.00813074 -0.000276385 0.00446841
106 1 -8.67417 -5.44899 20.0545 -0.000307143 0.00501037 0.00122493
107 1 -9.45409 -4.21304 20.0815 0.00728611 -0.000317145 0.00155878
108 1 -8.69979 -3.1187 19.7692 0.00269051 0.0107754 0.00672189
109 1 -9.40138 -1.84516 19.8106 0.00407293 0.00387185 0.00840512
110 1 -8.74216 -0.661844 19.6308 0.00600367 0.00159417 0.00958096
125 1 -7.31703 -0.655269 19.4549 0.0109306 -0.0044877 0.0079407
124 1 -7.3269 -3.14386 19.6961 0.00694371 0.00593454 0.00613951
123 1 -7.27425 -5.45617 19.9472 0.000333715 0.0014098 -0.00170727
186 1 -0.00214424 -5.49903 19.5875 -0.00131774 0.00207268 0.00819721
134 1 -6.53641 -4.29854 19.6838 0.00290789 0.00449404 -0.00283298
163 1 -2.97823 -5.46687 19.3005 -0.0085193 0.000852638 -0.0046499
135 1 -6.62733 -1.92878 19.3506 0.00812142 -0.000485766 0.015307
146 1 -4.37685 -5.42536 19.4228 -0.00782502 0.000758659 0.00283497
147 1 -5.13568 -4.28615 19.5343 0.00666972 -0.00259022 0.000580855
148 1 -4.44176 -3.06878 19.3116 -0.00609918 -0.0056378 0.0057874
149 1 -5.22123 -1.88871 19.3051 0.00673093 0.00464059 0.00600497
164 1 -2.99242 -3.06901 19.1535 0.004385 -0.00692015 -0.00670985
174 1 -2.22168 -4.28078 19.2176 0.00478505 0.00425217 -0.00102776
150 1 -4.475 -0.666236 19.3418 0.0100021 -0.00815376 0.00633294
187 1 -0.798544 -4.32104 19.3364 0.00047797 -0.00552594 -0.0011725
165 1 -3.06476 -0.705651 19.2795 0.0110464 0.00911715 -0.00335626
175 1 -2.2345 -1.91893 19.193 -0.00408621 -0.013611 -0.00675134
188 1 -0.0840332 -3.10223 19.4141 0.00406761 -0.000211117 -0.00779154
189 1 -0.82616 -1.87736 19.4163 0.00232812 -0.00538035 -0.0045717
190 1 -0.165886 -0.623623 19.4776 -0.00164941 -0.00377721 -0.017376
203 1 1.41558 -5.51479 19.5704 -0.00167064 -0.00209859 0.00236003
226 1 4.24955 -5.53626 20.187 -0.0108297 -0.00754166 0.00624087
243 1 5.6256 -5.60723 20.4905 -0.00708375 0.00539004 0.00599877
254 1 6.30145 -4.34659 20.6362 0.0012048 -0.000724339 0.000215279
255 1 6.20458 -1.92839 20.412 0.00249984 0.000264898 0.013551
227 1 3.50789 -4.36609 19.9468 0.000176945 -0.00520024 0.0140884
244 1 5.54558 -3.12294 20.6238 -0.002004 -0.0100224 0.00944519
214 1 2.16772 -4.29698 19.5239 0.00622645 -0.00390509 0.00742966
228 1 4.13506 -3.1224 20.2642 0.00166588 -0.000338732 0.00858022
245 1 5.47226 -0.692598 20.3784 0.000643994 -0.00348482 0.00901069
229 1 3.399 -1.90446 20.0956 -0.0146803 -0.00161592 0.00274855
230 1 4.03704 -0.636366 20.3876 -0.00168897 -0.00909333 0.00233973
204 1 1.33728 -3.09093 19.4323 -0.00498513 0.00354227 -0.00746604
215 1 1.99348 -1.89388 19.8291 0.00368781 0.000366076 -0.00586624
205 1 1.22497 -0.673331 19.7225 0.0147597 0.00822866 -0.0119418
269 1 7.59987 -1.88659 20.3121 0.000304268 -0.000238135 0.000939593
267 1 7.71479 -4.23763 20.5406 0.00154381 0.00611331 -0.0171874
266 1 8.45226 -5.45421 20.6321 0.00129041 0.00184219 0.000580655
268 1 8.42849 -3.00466 20.2661 0.00456103 -0.00743309 -0.00927008
270 1 8.35971 -0.645494 20.2556 0.00251863 -0.00114086 0.0126476
283 1 9.8511 -5.50558 20.3816 -0.00178715 -0.0181968 0.000160349
284 1 9.8258 -3.05528 20.0512 0.00474586 0.000242679 -0.00303373
285 1 9.75616 -0.587135 20.0951 0.000404444 -0.00518379 0.00793489
294 1 10.5434 -4.30483 20.157 -0.000109691 0.00400763 -0.00671741
295 1 10.5143 -1.78868 19.9567 0.00694185 -0.003374 -0.00169032
306 1 12.6496 -5.55341 19.9999 0 0 0
307 1 11.9041 -4.32686 19.9999 0 0 0
308 1 12.647 -3.09734 19.9999 0 0 0
309 1 11.9037 -1.86828 19.9999 0 0 0
310 1 12.6457 -0.637745 19.9999 0 0 0
323 1 14.0539 -5.56516 19.9999 0 0 0
324 1 14.0472 -3.10129 19.9999 0 0 0
325 1 14.0438 -0.638188 19.9999 0 0 0
71 1 -13.6826 0.591886 19.9999 0 0 0
72 1 -13.0424 1.82079 19.9999 0 0 0
73 1 -13.6895 3.04359 19.9999 0 0 0
74 1 -13.0413 4.27397 19.9999 0 0 0
75 1 -13.7195 5.48914 19.9999 0 0 0
86 1 -11.5623 1.82169 19.9999 0 0 0
87 1 -11.5564 4.27485 19.9999 0 0 0
96 1 -10.942 0.590769 19.9571 -0.00233606 -0.000366768 0.00153052
97 1 -10.8746 3.01939 19.7612 0.00382878 0.00130254 9.23726e-06
98 1 -10.84 5.52279 19.9531 -0.00805239 -0.000254805 -0.00355139
111 1 -9.50867 0.570658 19.7526 0.00347584 -0.0020474 0.0169531
112 1 -8.74447 1.73818 19.7098 -0.00182364 -0.00667625 0.00357028
113 1 -9.45278 2.97628 19.9042 -0.00289938 -0.00972334 0.00820502
114 1 -8.75939 4.22088 20.0079 0.00144953 0.00358539 0.00203252
115 1 -9.41283 5.46254 20.0561 -0.00964254 -0.00484326 0.00704769
126 1 -7.32183 1.76024 19.5086 0.0140137 -0.00480164 0.0039444
127 1 -7.33569 4.20961 19.9252 -0.00704538 -0.00627489 -0.0035603
138 1 -6.56604 5.38961 19.8052 -0.00384762 0.000983814 -0.00287261
195 1 -0.832022 5.43214 19.3615 0.00249394 0.00162776 0.00752486
155 1 -5.17757 5.44839 19.5963 -0.00217405 -0.00105816 -0.00132785
178 1 -2.31456 5.386 19.3534 -3.34909e-06 0.000961292 0.00861863
137 1 -6.65504 3.01161 19.5433 -0.00284265 -0.00508893 0.0024377
153 1 -5.25321 2.99203 19.4138 0.0031212 -0.000369242 0.00445231
154 1 -4.46599 4.19378 19.4784 0.00225166 0.00858712 0.0025745
136 1 -6.62592 0.575547 19.3548 0.0091062 -0.00621254 0.0119127
151 1 -5.17318 0.568887 19.3816 -0.000519822 -0.0036463 -0.0026879
167 1 -3.03371 4.1893 19.2956 -3.2358e-05 -1.62941e-05 -0.00765061
152 1 -4.51958 1.78259 19.2804 -0.00391397 0.00908511 0.00578948
177 1 -2.25091 2.97959 19.1208 0.00305771 0.00718654 -0.0070931
194 1 -0.063178 4.24478 19.3293 -0.00624576 0.00235345 -0.0135388
166 1 -3.07727 1.801 19.2556 0.013003 0.00129778 0.000791758
176 1 -2.36592 0.557055 19.3171 0.00317606 0.000564877 -0.00493538
193 1 -0.832173 3.01368 19.1731 -0.00925333 -0.00134946 -0.0202844
191 1 -0.923507 0.595737 19.3971 0.0120885 0.00125857 -0.00797583
192 1 -0.130531 1.80091 19.4544 0.00729178 -0.00151591 -0.0115501
218 1 2.12474 5.48246 19.8003 0.00640314 -0.00847893 0.00371061
235 1 3.52574 5.4335 20.1149 -0.00994048 0.00767723 0.00341155
247 1 5.66999 4.25325 20.6119 -0.000965357 0.000878755 0.00248167
257 1 6.3385 2.99992 20.6023 0.0116345 0.00556261 0.00145722
258 1 6.40164 5.45951 20.6607 0.000504562 -0.00122719 -0.00260396
234 1 4.25754 4.20723 20.4064 0.00272447 0.00762328 0.00564173
256 1 6.18959 0.51447 20.4894 -0.00363496 0.00551461 0.00307468
246 1 5.56246 1.76538 20.5438 -0.00635287 -0.0056483 0.0108926
233 1 3.47267 3.04952 20.2403 0.007346 0.00111717 0.0095302
231 1 3.32883 0.592168 20.3142 -0.0035525 0.00508348 0.00106887
232 1 4.13572 1.76534 20.4162 -0.00246236 -0.00601255 0.00809722
207 1 1.39277 4.26827 19.6469 -0.00698957 0.00265212 0.00127192
217 1 2.09238 3.00675 19.8695 -0.00838313 -0.0040401 0.00154664
206 1 1.30003 1.79649 19.6493 0.00852147 -0.000498902 -0.00894471
216 1 1.90947 0.577441 19.9446 0.000494232 -0.00630259 -0.0104391
275 1 7.82885 5.44293 20.6019 -0.00488096 -0.00285596 -0.00742891
271 1 7.60509 0.55079 20.337 0.00355991 -7.48053e-05 0.00213377
273 1 7.75365 2.98602 20.4896 0.00326535 0.00156335 -0.00838567
272 1 8.3748 1.75833 20.2727 0.00712586 0.00784833 0.00515724
274 1 8.50105 4.23351 20.5084 0.00162765 0.000638519 -0.0069522
286 1 9.76313 1.77128 20.0423 -0.000595127 -0.00202003 -0.00602849
287 1 9.85821 4.20108 20.2158 0.00987075 0.00481635 -0.0136798
296 1 10.5053 0.594398 19.9781 0.0104167 -0.00466913 0.00221324
297 1 10.5022 3.00375 20.045 -4.83336e-05 -0.00921491 -0.0122181
298 1 10.547 5.45132 20.1477 0.00113193 0.00566757 -0.00156995
311 1 11.9034 0.592385 19.9999 0 0 0
312 1 12.6457 1.82255 19.9999 0 0 0
313 1 11.9038 3.05326 19.9999 0 0 0
314 1 12.6466 4.28301 19.9999 0 0 0
315 1 11.9041 5.51379 19.9999 0 0 0
326 1 14.0439 1.82305 19.9999 0 0 0
327 1 14.0468 4.28589 19.9999 0 0 0
76 1 -13.0678 6.73987 19.9999 0 0 0
77 1 -13.743 7.99662 19.9999 0 0 0
78 1 -13.076 9.22053 19.9999 0 0 0
79 1 -13.6781 10.6114 19.9999 0 0 0
80 1 -13.0646 11.9529 19.9999 0 0 0
88 1 -11.5395 6.7281 19.9999 0 0 0
89 1 -11.5535 9.18478 19.9999 0 0 0
90 1 -11.7099 11.6077 19.9999 0 0 0
99 1 -10.8347 7.982 20.078 -0.0032647 -0.00149406 -0.00454619
100 1 -10.9027 10.4758 19.9999 0 0 0
116 1 -8.72636 6.65285 19.9585 -0.00844942 -0.00423656 -8.3873e-05
117 1 -9.42703 7.89925 20.0043 -0.00132638 0.00177745 -0.00054835
118 1 -8.74744 9.13424 19.8566 -0.000797109 -0.00973174 -0.00590834
119 1 -9.37207 10.4804 19.9999 0 0 0
120 1 -8.62688 11.6228 19.9999 0 0 0
130 1 -7.38724 11.6024 19.9999 0 0 0
128 1 -7.28241 6.62625 19.9125 -0.00437944 0.00357623 0.00314446
129 1 -7.33709 9.14865 19.9049 0.00435688 0.0023647 0.00117034
139 1 -6.63783 7.91411 19.8753 -0.00429805 0.000858631 -0.00225541
140 1 -6.60892 10.469 19.9999 0 0 0
156 1 -4.43975 6.6491 19.5121 -0.00397342 0.00636625 -0.00210721
157 1 -5.15343 7.88991 19.739 -0.00277949 0.00926466 0.00394122
158 1 -4.46146 9.12302 19.8324 -0.00486198 0.00301015 -0.000815818
159 1 -5.14663 10.4689 19.9999 0 0 0
160 1 -4.36691 11.6023 19.9999 0 0 0
168 1 -3.03993 6.62398 19.4029 0.000216348 0.014718 0.000922888
169 1 -3.05578 9.15678 19.7827 -0.0017137 -0.00535805 0.00691811
170 1 -3.12269 11.6018 19.9999 0 0 0
179 1 -2.31852 7.90951 19.6106 0.0114216 -0.00912008 0.00333426
180 1 -2.34103 10.4689 19.9999 0 0 0
196 1 -0.143656 6.70148 19.7139 0.00378465 0.000809219 0.000834393
197 1 -0.884561 7.88232 19.8411 0.00351491 0.00949867 0.00805308
198 1 -0.165786 9.18866 19.9364 0.00465188 0.00195207 0.0077554
199 1 -0.876963 10.4688 19.9999 0 0 0
200 1 -0.0953724 11.6018 19.9999 0 0 0
208 1 1.34446 6.72407 19.7457 -0.00610162 0.00122343 0.0103316
209 1 1.21996 9.16527 20.0681 -0.000668246 0.0076011 0.00106093
210 1 1.14924 11.6018 19.9999 0 0 0
219 1 1.97254 7.94767 20.0222 -0.00015019 0.00334976 0.000719203
220 1 1.93091 10.4688 19.9999 0 0 0
236 1 4.19216 6.70196 20.3671 -0.00392803 0.00232004 0.00592065
237 1 3.45707 7.9275 20.2131 -0.00311848 0.00599201 0.00739225
238 1 4.16474 9.19242 20.2789 0.00395062 0.00337949 0.00823696
239 1 3.39506 10.4687 19.9999 0 0 0
240 1 4.17656 11.6018 19.9999 0 0 0
248 1 5.6231 6.69453 20.6891 -0.00441393 -0.00607144 0.0036586
249 1 5.51916 9.24967 20.3665 -0.000901701 0.00661402 0.00886198
250 1 5.4212 11.6017 19.9999 0 0 0
259 1 6.26122 7.99526 20.5553 -0.00338061 -0.00741658 0.00426737
260 1 6.20335 10.4685 19.9999 0 0 0
277 1 7.72147 7.92126 20.4847 0.00718844 0.005511 -0.00576791
276 1 8.46259 6.71629 20.5076 -0.00655654 -0.010119 0.00250636
278 1 8.32776 9.16988 20.2051 -0.00334803 -0.000549163 -0.0070474
279 1 7.66711 10.4687 19.9999 0 0 0
280 1 8.44529 11.6024 19.9999 0 0 0
288 1 9.82745 6.66321 20.1498 0.00518386 0.00430686 -0.000817133
289 1 9.76946 9.14727 20.1312 -0.0151285 0.00428856 -0.00299045
290 1 9.6873 11.6101 19.9999 0 0 0
299 1 10.5317 7.9206 20.1673 -0.00209389 0.00670366 -0.00594584
300 1 10.4752 10.4755 19.9999 0 0 0
316 1 12.6473 6.74288 19.9999 0 0 0
317 1 11.9051 7.97805 19.9999 0 0 0
318 1 12.6583 9.19198 19.9999 0 0 0
319 1 11.9246 10.4937 19.9999 0 0 0
320 1 12.7709 11.5297 19.9999 0 0 0
328 1 14.0456 6.75188 19.9999 0 0 0
329 1 14.0237 9.17042 19.9999 0 0 0
330 1 13.9415 11.792 19.9999 0 0 0
