ITEM: TIMESTEP
53300
ITEM: NUMBER OF ATOMS
330
ITEM: BOX BOUNDS pp pp pp
-1.4715758017245314e+01 1.5057610017245315e+01
-1.2710055654020760e+01 1.2664508654020761e+01
-5.0001035148846022e+01 1.0000103514884636e+02
ITEM: ATOMS id type x y z vx vy vz
8 1 3.89221 -0.700304 -19.2581 -0.000397171 -0.000765586 -0.0161577
7 1 5.32111 -0.736398 -18.9985 0.0059518 0.000591697 -0.0178948
44 1 1.79885 -1.16113 -18.4212 0.00649967 0.00190232 -0.01811
28 1 3.04382 -1.75031 -18.7486 0.0081823 -0.00671013 -0.0195518
26 1 5.92806 -1.75027 -18.2241 -0.00423787 -0.00175833 -0.0188117
52 1 3.63318 -2.75252 -17.9754 0.00139244 0.00188808 -0.0223488
20 1 1.11468 -1.63074 -17.2562 -0.00176407 -0.000122438 -0.0177887
40 1 7.05448 -1.28077 -17.4763 0.00276646 -0.000963448 -0.015107
50 1 5.0507 -2.74036 -17.7227 -0.00349145 -0.000760329 -0.0214041
4 1 0.553569 -0.733488 -16.3052 0.00725044 0.0029447 -0.0164421
60 1 1.6576 -2.77111 -16.501 0.00490894 -0.00472878 -0.018777
36 1 2.90593 -3.36688 -16.9001 -0.0051755 -0.00481892 -0.0218607
35 1 5.22446 -3.25969 -16.4072 0.00348792 0.000209624 -0.017634
16 1 7.27529 -1.81706 -16.166 0.000739742 0.00679089 -0.0103487
12 1 3.92467 -3.65272 -15.9087 0.00307907 -0.00482105 -0.0121255
59 1 6.30395 -2.74712 -15.6675 -0.00550868 0.00378347 -0.0166358
19 1 0.639826 -1.31474 -15.0076 0.00869687 0.00392773 -0.0196879
58 1 1.36704 -2.5183 -15.1279 0.00570358 -0.000258681 -0.0213565
2 1 7.40449 -0.892828 -15.0656 0.00239501 0.000399346 -0.0165675
11 1 3.70376 -3.31243 -14.6088 -0.00361157 -0.00110302 -0.0211086
57 1 6.06114 -2.50954 -14.3078 0.00361101 -0.0064786 -0.0231852
27 1 3.10152 0.501652 -19.1591 0.00656393 0.000823677 -0.0143965
51 1 3.81857 1.72584 -18.7815 0.00500734 -0.00927208 -0.0136449
42 1 1.7471 0.24365 -18.6883 -0.00038205 -0.00364444 -0.0179893
25 1 6.03627 0.47926 -18.7164 0.00225055 0.00298548 -0.0137992
49 1 5.24994 1.69966 -18.5288 -0.000401843 0.00325919 -0.0137538
38 1 7.07406 0.185453 -17.7168 -0.00640765 0.000338006 -0.00936081
32 1 3.24387 2.65839 -17.8852 0.000810009 -0.00258457 -0.00846156
18 1 1.24202 1.18746 -17.7407 0.00543611 9.67705e-05 -0.0190877
56 1 1.93096 2.39869 -17.3475 0.00146187 -0.00285334 -0.0222808
31 1 5.50977 2.60776 -17.4252 0.000747118 -0.00201933 -0.0146768
10 1 4.25831 3.18056 -17.0357 -0.00208882 0.0063765 -0.0163242
3 1 0.560011 0.680048 -16.5583 4.71299e-05 -0.00329623 -0.0226893
14 1 7.28637 1.06423 -16.5997 -0.00225575 0.0043283 -0.0160737
55 1 6.57235 2.32284 -16.4708 0.000715681 0.000377501 -0.018361
17 1 0.898544 1.51071 -15.4663 0.0052008 0.000222122 -0.0149632
54 1 1.72557 2.52535 -15.9785 0.00123408 0.00533154 -0.0165367
9 1 3.99159 3.37919 -15.6182 0.00600438 0.00616277 -0.0158319
1 1 7.45998 0.528291 -15.2487 -0.00625879 -0.000464422 -0.018705
53 1 6.27233 2.48312 -15.0951 0.00032051 0.00185433 -0.0173243
30 1 2.74422 3.00461 -15.07 0.00105426 0.00568943 -0.0208746
29 1 5.04146 3.03803 -14.6815 0.00400445 -0.00993026 -0.0121808
13 1 6.81203 1.38716 -14.3625 0.000923901 0.00238837 -0.0166892
43 1 0.948995 -0.420255 -13.9014 0.0106022 0.00418001 -0.0239135
34 1 2.43068 -2.7879 -14.1912 0.00682127 0.00245009 -0.0178679
15 1 6.66974 -1.31962 -13.9362 0.000491755 -0.00938613 -0.0209372
33 1 4.73922 -2.7548 -13.7837 0.0015941 -0.00318089 -0.0146458
39 1 6.05954 -0.444992 -13.0053 0.00390636 -0.00452362 -0.0167306
24 1 1.87387 -0.768002 -12.8526 0.00295507 0.0015724 -0.0158277
48 1 2.60447 -1.97993 -13.0458 -0.000342222 -0.00269163 -0.0217358
46 1 4.06093 -2.0112 -12.7565 0.00846572 -2.67781e-05 -0.022731
22 1 4.75159 -0.800407 -12.4082 0.00439452 0.00192552 -0.0212603
41 1 1.07167 0.981991 -14.1753 0.000455895 -0.00620711 -0.0184977
47 1 2.94878 2.47565 -13.7806 0.00395108 -3.78106e-05 -0.0179234
23 1 2.05134 1.51536 -13.2945 0.0031269 0.00579936 -0.0151732
37 1 6.12783 0.972059 -13.2084 0.00158838 0.00421898 -0.0202946
45 1 4.36079 2.56238 -13.4885 0.00107203 0.00663355 -0.0218508
21 1 4.89736 1.45559 -12.6929 0.00632144 -0.00285873 -0.0151481
6 1 2.55729 0.447731 -12.4766 0.00207852 -0.00166566 -0.0237567
5 1 4.00216 0.435366 -12.1895 0.00295012 0.00717126 -0.0210407
61 1 -13.6674 -11.9461 19.9999 0 0 0
62 1 -13.1228 -10.6724 19.9999 0 0 0
63 1 -13.7825 -9.34696 19.9999 0 0 0
64 1 -13.0772 -8.00396 19.9999 0 0 0
65 1 -13.7542 -6.79742 19.9999 0 0 0
81 1 -11.507 -10.5408 19.9999 0 0 0
82 1 -11.5331 -8.01671 19.9999 0 0 0
91 1 -10.7591 -11.6424 19.9999 0 0 0
92 1 -10.8253 -9.22151 20.0341 -0.00388074 -0.00242906 0.00704165
93 1 -10.8657 -6.77472 20.0122 0.000353223 -0.00552357 0.00205197
101 1 -9.52473 -11.6468 19.9999 0 0 0
102 1 -8.74136 -10.5124 19.9999 0 0 0
103 1 -9.41554 -9.19374 19.9522 0.00706508 -0.00248185 0.00842453
104 1 -8.73913 -7.96096 19.7831 0.00327967 0.00118683 0.011556
105 1 -9.44429 -6.73368 19.787 0.00868805 -2.46186e-05 0.0113157
121 1 -7.27873 -10.5146 19.9999 0 0 0
122 1 -7.31905 -7.96769 19.8432 0.00397194 0.0106682 0.00402855
131 1 -6.50232 -11.6488 19.9999 0 0 0
132 1 -6.61159 -9.20781 19.9249 0.00373995 0.000289819 0.00943812
133 1 -6.68088 -6.69028 19.8566 0.00311278 -0.000826248 0.00065256
141 1 -5.25854 -11.6473 19.9999 0 0 0
142 1 -4.47674 -10.5145 19.9999 0 0 0
143 1 -5.24318 -9.19931 19.9582 0.00859704 0.0111477 0.00544096
144 1 -4.56356 -7.96714 19.9362 0.00797891 0.0115569 -0.000101876
145 1 -5.25644 -6.68651 19.878 0.00738943 0.00157214 0.00211114
161 1 -3.01281 -10.5144 19.9999 0 0 0
162 1 -3.15892 -7.99188 19.9836 -0.00144125 0.00896068 -0.00331209
171 1 -2.23133 -11.6474 19.9999 0 0 0
172 1 -2.34553 -9.20779 19.9908 0.0017824 0.000884507 0.00343566
173 1 -2.40925 -6.73431 20.0426 0.00367172 0.00815205 0.000796038
181 1 -0.986751 -11.6474 19.9999 0 0 0
182 1 -0.205108 -10.5143 19.9999 0 0 0
183 1 -0.977051 -9.21386 20.0474 0.0045765 -0.000155528 -0.00501374
184 1 -0.222221 -7.96645 20.1264 0.00973065 -0.000658452 -0.00518835
185 1 -0.981025 -6.77089 19.8623 -0.00353794 0.0054107 -0.0129476
201 1 1.25901 -10.5143 19.9999 0 0 0
202 1 1.20143 -8.0178 20.1982 0.000197189 -0.00220022 -0.00766882
211 1 2.0406 -11.6474 19.9999 0 0 0
212 1 1.91204 -9.20401 19.9451 0.00529578 0.00749406 0.00636505
213 1 1.86104 -6.8142 20.3137 -0.00692301 -0.0158144 -0.00759732
221 1 3.28523 -11.6473 19.9999 0 0 0
222 1 4.06705 -10.5143 19.9999 0 0 0
223 1 3.30732 -9.23016 20.0018 0.0143831 -0.00374645 0.00872354
224 1 4.10289 -8.06033 19.9825 0.00975778 -0.00305207 0.00294797
225 1 3.32108 -6.84544 20.2011 0.00665833 -0.00232536 0.00158198
241 1 5.53108 -10.5143 19.9999 0 0 0
242 1 5.54639 -7.98555 19.8788 0.000682615 -0.00397542 0.0067213
251 1 6.31174 -11.6474 19.9999 0 0 0
252 1 6.30126 -9.24926 19.9215 -0.000733241 -0.0137873 0.0129193
253 1 6.23506 -6.77317 19.7791 -0.00813552 0.0137812 0.0135024
261 1 7.55524 -11.6498 19.9999 0 0 0
265 1 7.61453 -6.72926 19.6194 9.77908e-05 -0.00528165 0.0139513
263 1 7.69594 -9.22859 19.8391 0.00163753 0.00267383 0.00438623
262 1 8.33779 -10.5154 19.9999 0 0 0
264 1 8.31582 -7.96006 19.5624 -0.00361856 0.000179849 -0.000804483
281 1 9.79556 -10.5245 19.9999 0 0 0
282 1 9.76324 -7.98866 19.7446 -0.00637861 0.000913437 0.000570249
291 1 10.5816 -11.6418 19.9999 0 0 0
292 1 10.5052 -9.18477 19.9105 0.0102587 -0.0019393 0.00284254
293 1 10.4661 -6.74915 19.7266 -0.00318778 -0.00423903 0.0040121
301 1 11.8019 -11.7522 19.9999 0 0 0
302 1 12.7161 -10.5156 19.9999 0 0 0
303 1 11.8934 -9.22642 19.9999 0 0 0
304 1 12.655 -8.00627 19.9999 0 0 0
305 1 11.8992 -6.77596 19.9999 0 0 0
321 1 14.087 -10.4984 19.9999 0 0 0
322 1 14.0714 -8.01298 19.9999 0 0 0
66 1 -13.0658 -5.54976 19.9999 0 0 0
67 1 -13.7179 -4.30197 19.9999 0 0 0
68 1 -13.0406 -3.0891 19.9999 0 0 0
69 1 -13.6883 -1.86008 19.9999 0 0 0
70 1 -13.0424 -0.636745 19.9999 0 0 0
83 1 -11.5387 -5.54743 19.9999 0 0 0
84 1 -11.5566 -3.09089 19.9999 0 0 0
85 1 -11.5625 -0.637245 19.9999 0 0 0
94 1 -10.8332 -4.30797 20.0629 -0.00133212 -0.0021163 0.00595612
95 1 -10.8471 -1.8806 20.0883 -0.00271896 0.00672391 0.00184301
106 1 -8.76641 -5.472 19.7402 0.000410585 -0.000114747 0.00436302
107 1 -9.43277 -4.25015 19.8253 -0.00505693 0.000574192 0.00247379
108 1 -8.75806 -2.98282 19.8131 0.00091707 0.00790491 0.00733994
109 1 -9.43968 -1.80766 20.0857 0.00225267 -0.0032723 -0.00086471
110 1 -8.6952 -0.621525 20.3757 0.00477012 0.00135584 0.0073856
123 1 -7.38773 -5.45379 19.7528 0.0131252 -0.000320687 0.00750792
124 1 -7.35193 -2.99879 19.6763 0.00430492 -0.0046161 -0.00087234
125 1 -7.27254 -0.652979 20.2707 0.005835 0.0117195 0.00150648
186 1 -0.275424 -5.56097 19.9518 0.00488534 0.00937081 0.00590846
134 1 -6.65934 -4.21534 19.6387 -0.000842312 -0.00240759 -0.000338691
163 1 -3.1439 -5.50116 19.8546 0.00532225 -0.00402074 -0.00759204
135 1 -6.63536 -1.86668 19.8399 0.00102166 0.000501288 -0.00343593
146 1 -4.54239 -5.48046 19.813 0.011287 -0.00483304 0.00102977
147 1 -5.25237 -4.22745 19.5422 0.00378685 -0.000216764 0.00197472
148 1 -4.49378 -3.0307 19.5885 -0.00388468 -0.00721596 -0.0117784
149 1 -5.22696 -1.83961 19.658 -6.84852e-05 -0.00876748 -0.005769
164 1 -3.05504 -3.02084 19.5018 0.00204773 -0.00338524 -0.00920109
174 1 -2.4144 -4.29666 19.7078 -0.000240912 0.00597577 -0.00784001
150 1 -4.56634 -0.578663 19.6097 -0.00172282 -0.00513507 -0.00349192
187 1 -1.00917 -4.27521 19.8888 -0.00777402 0.013079 0.00301848
165 1 -3.17082 -0.575197 19.3351 -0.00586772 0.00730455 -0.0113954
175 1 -2.42005 -1.76879 19.4977 -0.0137715 0.00687268 -0.00605621
188 1 -0.312272 -3.06076 19.8237 0.00208649 0.00481894 0.0142825
189 1 -1.00926 -1.80599 19.5841 0.00939528 0.00537258 0.00093787
190 1 -0.24579 -0.611776 19.2711 -0.00436534 0.00687715 7.28174e-05
203 1 1.18316 -5.5596 20.1042 0.00492865 -0.0105991 -0.00535842
226 1 4.06989 -5.60168 20.1899 -0.00965345 -0.00178047 -0.000711348
243 1 5.48944 -5.5613 20.0364 -0.0071378 -0.00416751 0.00831029
254 1 6.17868 -4.34652 19.9653 -0.00559548 0.0012467 0.00660829
255 1 6.14799 -1.85917 19.8537 0.00156628 0.000754736 -0.000813299
227 1 3.31445 -4.34699 20.1424 -0.00188669 -0.005738 0.0101251
244 1 5.47079 -3.11399 19.9272 0.00265522 0.00359833 0.00922337
214 1 1.88719 -4.30604 20.0428 -0.00558101 0.00853368 0.0077011
228 1 4.03355 -3.10256 20.0445 -0.00105004 -0.00607119 0.00763041
245 1 5.4462 -0.639456 19.9615 -0.0060719 0.00513402 0.00556036
229 1 3.28493 -1.9026 19.8541 0.00539054 0.00166745 0.000848746
230 1 4.02712 -0.647994 19.8267 0.00234451 -0.000724338 -0.0150054
204 1 1.15387 -3.08039 19.9489 -0.00268474 -0.00462905 0.00132246
215 1 1.83746 -1.84438 19.8122 0.00183628 -0.00196109 0.00309269
205 1 1.19804 -0.605917 19.3912 -0.00242514 -0.012141 0.0105201
269 1 7.56415 -1.84123 19.8063 0.00501159 0.00708138 4.21098e-05
267 1 7.59677 -4.27174 19.7649 0.00421569 -0.0106632 0.0057582
266 1 8.32036 -5.49768 19.5832 -0.00615044 0.00814455 0.00311972
268 1 8.33209 -3.07376 19.8175 -0.0040688 -0.0140596 0.00639391
270 1 8.3091 -0.641723 19.8816 -0.00390802 0.00184954 0.00894228
283 1 9.7724 -5.51623 19.6521 0.00329218 -0.000157608 -0.000623762
284 1 9.76146 -3.04385 19.9979 -0.00119572 0.00479904 0.00609097
285 1 9.7244 -0.615119 20.0682 -0.00498644 0.0012911 0.012581
294 1 10.4897 -4.27044 19.905 0.00296523 -0.0107538 -0.000610618
295 1 10.4898 -1.82004 20.0166 0.00396811 -0.00500711 -0.00134071
306 1 12.6496 -5.55341 19.9999 0 0 0
307 1 11.9041 -4.32686 19.9999 0 0 0
308 1 12.647 -3.09734 19.9999 0 0 0
309 1 11.9037 -1.86828 19.9999 0 0 0
310 1 12.6457 -0.637745 19.9999 0 0 0
323 1 14.0539 -5.56516 19.9999 0 0 0
324 1 14.0472 -3.10129 19.9999 0 0 0
325 1 14.0438 -0.638188 19.9999 0 0 0
71 1 -13.6826 0.591886 19.9999 0 0 0
72 1 -13.0424 1.82079 19.9999 0 0 0
73 1 -13.6895 3.04359 19.9999 0 0 0
74 1 -13.0413 4.27397 19.9999 0 0 0
75 1 -13.7195 5.48914 19.9999 0 0 0
86 1 -11.5623 1.82169 19.9999 0 0 0
87 1 -11.5564 4.27485 19.9999 0 0 0
96 1 -10.8932 0.597368 20.1099 0.00101791 -0.00429817 0.000993334
97 1 -10.9141 3.05293 19.9625 -0.000894083 0.00690117 0.00252224
98 1 -10.8848 5.44651 19.9307 0.0112405 0.00325176 -0.00235921
111 1 -9.45955 0.547401 20.3387 0.00239168 -0.00668791 0.0127825
112 1 -8.77745 1.80704 20.1066 0.00392367 0.00564236 0.00350736
113 1 -9.45176 3.00858 19.9463 0.0122334 -0.00470823 -0.00135938
114 1 -8.74552 4.21143 19.6462 -0.00730835 0.00741495 0.00598881
115 1 -9.44568 5.39919 19.7175 0.0101961 -0.00839843 0.00781249
127 1 -7.36748 4.22296 19.6071 -0.00209794 -0.000324796 -0.00638941
126 1 -7.30127 1.81924 19.929 0.00765744 -0.00542354 0.00357003
138 1 -6.65323 5.44937 19.6667 0.00685544 -0.00528355 0.00824506
195 1 -1.01561 5.44063 20.2696 -0.00351128 0.0105773 -0.00529763
155 1 -5.25765 5.46371 19.915 -0.00391609 -9.4308e-05 0.00037221
178 1 -2.40159 5.51786 20.104 -0.0129789 -0.0140711 -0.000531791
137 1 -6.64347 3.0239 19.5909 0.00809829 0.0105151 0.00154941
153 1 -5.24688 3.08243 19.6288 0.00317335 -0.00219872 -0.010466
154 1 -4.52583 4.25539 19.9075 -0.00189173 0.00576436 -0.00460156
136 1 -6.58363 0.609261 20.1343 0.0145909 0.00280599 -0.00359015
151 1 -5.20359 0.643382 19.755 -0.00430483 0.00370367 0.0012116
167 1 -3.07298 4.24515 19.9147 -0.00455426 -0.00624723 -0.00883793
152 1 -4.51275 1.87071 19.4464 0.00325214 0.0040038 -0.018379
177 1 -2.35947 3.01654 19.7115 -0.0068346 -0.00251552 -0.00884856
194 1 -0.255422 4.2396 20.1825 0.00035556 -0.00299439 0.00259753
166 1 -3.10847 1.86269 19.4484 -0.00812625 0.00280423 -0.00148116
176 1 -2.37098 0.62673 19.2865 0.00546755 0.000460088 -0.00788196
193 1 -0.959809 2.99868 19.9661 -0.00845572 -0.0104249 -0.0024705
191 1 -0.996115 0.635238 19.3474 -0.0100498 0.00269469 0.00479661
192 1 -0.226529 1.80646 19.6396 0.00647723 -0.00418395 -0.000904262
218 1 1.85478 5.50231 20.3116 0.00217807 -0.00079104 -0.0131056
235 1 3.30963 5.57865 20.233 0.00414344 0.00306496 0.00224488
247 1 5.43661 4.24934 19.8578 -0.00256515 0.00335403 0.0114151
257 1 6.17748 3.01811 19.9893 -0.00434193 -0.00224458 0.00732325
258 1 6.19169 5.48125 19.7886 -0.00152364 0.0102847 0.0140422
234 1 4.02852 4.31411 20.0781 -0.00177679 -0.00496214 0.0083172
256 1 6.15878 0.583991 19.9561 -0.0102611 0.000631222 0.00599034
246 1 5.42958 1.79411 20.1341 -0.000620677 -0.00665125 0.0153113
233 1 3.32359 3.02979 19.9334 0.00476456 -0.000348477 0.000385117
231 1 3.31387 0.558523 19.7357 -0.00795646 0.00230531 0.00786059
232 1 3.99736 1.75421 20.0473 -0.00470462 -0.00772582 0.00222378
207 1 1.18742 4.2196 20.235 -0.0195323 -0.00364968 0.0128967
217 1 1.8872 3.04168 20.0362 0.00857898 0.00256442 -0.000219292
206 1 1.15404 1.81523 19.8117 0.00169477 0.00426718 0.00070184
216 1 1.88946 0.610893 19.6018 0.00397575 0.00476688 0.00276097
275 1 7.65864 5.44501 19.6832 0.00193687 0.000355532 0.00594724
273 1 7.62176 3.03055 19.803 -0.00867707 0.00481394 0.0069678
271 1 7.61721 0.610369 19.7904 0.00107927 -0.00901408 0.0086569
272 1 8.34791 1.84985 19.8028 0.000675958 0.00286188 0.00303934
274 1 8.36935 4.25217 19.7974 0.000534195 0.00431833 0.00808036
286 1 9.80903 1.90036 19.8266 -0.0154143 0.00140518 0.00218189
287 1 9.78389 4.29472 19.7776 -0.000841917 -0.00280359 0.00232331
296 1 10.4706 0.634309 19.9445 0.00715062 0.00488354 -0.00095873
297 1 10.524 3.12312 19.876 -0.00572518 0.00896994 0.00747295
298 1 10.5578 5.51563 19.7656 0.010375 -0.00536305 0.000533246
311 1 11.9034 0.592385 19.9999 0 0 0
312 1 12.6457 1.82255 19.9999 0 0 0
313 1 11.9038 3.05326 19.9999 0 0 0
314 1 12.6466 4.28301 19.9999 0 0 0
315 1 11.9041 5.51379 19.9999 0 0 0
326 1 14.0439 1.82305 19.9999 0 0 0
327 1 14.0468 4.28589 19.9999 0 0 0
76 1 -13.0678 6.73987 19.9999 0 0 0
77 1 -13.743 7.99662 19.9999 0 0 0
78 1 -13.076 9.22053 19.9999 0 0 0
79 1 -13.6781 10.6114 19.9999 0 0 0
80 1 -13.0646 11.9529 19.9999 0 0 0
88 1 -11.5395 6.7281 19.9999 0 0 0
89 1 -11.5535 9.18478 19.9999 0 0 0
90 1 -11.7099 11.6077 19.9999 0 0 0
99 1 -10.8544 7.92427 20.0606 -0.000149937 -0.00462504 -0.000643766
100 1 -10.9027 10.4758 19.9999 0 0 0
116 1 -8.70896 6.64573 19.8555 0.00698173 0.000908756 0.0049382
117 1 -9.42487 7.89343 20.0763 0.00147217 0.009419 0.01579
118 1 -8.73263 9.0976 20.0456 0.0029699 0.00126228 0.0212036
119 1 -9.37207 10.4804 19.9999 0 0 0
120 1 -8.62688 11.6228 19.9999 0 0 0
130 1 -7.38724 11.6024 19.9999 0 0 0
129 1 -7.36288 9.18425 19.9415 0.0123298 0.00241371 0.00552297
128 1 -7.30095 6.67452 19.7828 -0.00758518 0.00490122 0.00366738
139 1 -6.66913 7.93558 19.9202 0.000562302 -0.00134837 -0.00111394
140 1 -6.60892 10.469 19.9999 0 0 0
156 1 -4.56716 6.71475 20.1687 0.00455368 -0.00540888 0.000585864
157 1 -5.23663 7.96765 19.9825 -0.00420768 -0.00257748 0.00565601
158 1 -4.52582 9.16179 20.1136 0.00699891 0.00777978 -0.012788
159 1 -5.14663 10.4689 19.9999 0 0 0
160 1 -4.36691 11.6023 19.9999 0 0 0
168 1 -3.17933 6.78701 20.168 0.00455285 -0.00915111 0.00226594
169 1 -3.10855 9.21349 20.0528 -0.00873795 -0.000499647 0.000833396
170 1 -3.12269 11.6018 19.9999 0 0 0
179 1 -2.42958 7.96919 20.2202 0.00348326 -0.00405511 -0.00654796
180 1 -2.34103 10.4689 19.9999 0 0 0
196 1 -0.303293 6.7098 20.2445 0.0066624 0.00329863 -0.00961439
197 1 -0.977917 7.95293 20.1515 0.00503706 0.00245604 -0.00513252
198 1 -0.192194 9.18233 20.1986 0.00416373 0.00088063 0.00708345
199 1 -0.876963 10.4688 19.9999 0 0 0
200 1 -0.0953724 11.6018 19.9999 0 0 0
208 1 1.10105 6.73046 20.2715 -0.00102851 0.0037157 -0.00418672
209 1 1.24662 9.17584 20.2087 -0.00727522 0.00404303 -0.00989962
210 1 1.14924 11.6018 19.9999 0 0 0
219 1 1.88278 7.9295 20.254 0.00502974 0.00214146 -0.0107014
220 1 1.93091 10.4688 19.9999 0 0 0
236 1 4.05511 6.76994 20.0187 -0.00279873 0.00292539 0.0122056
237 1 3.30687 7.9804 20.1404 0.000626828 0.00107433 -0.00392054
238 1 4.10883 9.19417 20.0797 -0.000441219 0.00485056 0.0043668
239 1 3.39506 10.4687 19.9999 0 0 0
240 1 4.17656 11.6018 19.9999 0 0 0
248 1 5.50493 6.75671 19.8445 0.00922686 0.00204744 0.00606116
249 1 5.47278 9.1462 20.0536 -0.000276486 -0.00138272 0.0184709
250 1 5.4212 11.6017 19.9999 0 0 0
259 1 6.24153 7.95306 19.871 0.00492596 -0.00876835 0.00847822
260 1 6.20335 10.4685 19.9999 0 0 0
277 1 7.68471 7.91087 19.6964 0.013023 -0.0037499 0.0132908
276 1 8.37418 6.68848 19.5849 0.0122116 -0.00202419 0.00389885
278 1 8.40595 9.13103 19.8167 0.00565028 -0.000427832 0.00482642
279 1 7.66711 10.4687 19.9999 0 0 0
280 1 8.44529 11.6024 19.9999 0 0 0
288 1 9.80511 6.70126 19.7015 -0.00545773 -0.0126879 0.000253118
289 1 9.76913 9.19571 19.8084 0.00373633 0.000317732 0.0061263
290 1 9.6873 11.6101 19.9999 0 0 0
299 1 10.5034 7.95932 19.7479 -0.00352731 -0.00722386 0.00392545
300 1 10.4752 10.4755 19.9999 0 0 0
316 1 12.6473 6.74288 19.9999 0 0 0
317 1 11.9051 7.97805 19.9999 0 0 0
318 1 12.6583 9.19198 19.9999 0 0 0
319 1 11.9246 10.4937 19.9999 0 0 0
320 1 12.7709 11.5297 19.9999 0 0 0
328 1 14.0456 6.75188 19.9999 0 0 0
329 1 14.0237 9.17042 19.9999 0 0 0
330 1 13.9415 11.792 19.9999 0 0 0
