ITEM: TIMESTEP
38900
ITEM: NUMBER OF ATOMS
330
ITEM: BOX BOUNDS pp pp pp
-1.4715758017245314e+01 1.5057610017245315e+01
-1.2710055654020760e+01 1.2664508654020761e+01
-5.0001035148846022e+01 1.0000103514884636e+02
ITEM: ATOMS id type x y z vx vy vz
44 1 0.183439 -1.31246 -5.38686 0.00505192 0.00579931 -0.0209372
20 1 -0.441833 -1.75311 -4.15046 0.00435937 -0.00313604 -0.0167356
4 1 -0.90808 -0.755478 -3.21683 0.00374867 -0.00249576 -0.0116059
60 1 0.141951 -2.80965 -3.35445 0.000450451 0.00589271 -0.017498
28 1 1.38625 -1.90334 -5.76443 0.000436863 0.00680431 -0.0238134
8 1 2.20504 -0.891268 -6.33891 0.00479856 -0.00180683 -0.0213211
7 1 3.58757 -0.87866 -6.13731 0.00375611 -0.00183109 -0.0212511
26 1 4.2102 -1.89881 -5.38914 -0.000682823 -0.00170228 -0.0252334
52 1 1.99503 -2.96924 -4.99846 0.00169893 0.0007969 -0.0177659
40 1 5.35205 -1.34103 -4.79216 -0.00150584 0.000568634 -0.0185899
50 1 3.44768 -3.01376 -4.89246 0.00218617 0.0093659 -0.0209612
36 1 1.38258 -3.38853 -3.79992 -0.00295169 0.00496549 -0.0234924
16 1 5.57381 -1.81804 -3.43274 0.00708726 -0.000756586 -0.0157969
35 1 3.6817 -3.38284 -3.53947 0.00260857 0.00688754 -0.0207065
12 1 2.45215 -3.62591 -2.83259 0.00200628 0.00665212 -0.0189263
42 1 0.193092 0.0495418 -5.72707 -0.00270452 0.00393497 -0.0109874
18 1 -0.381742 1.02358 -4.87166 0.00576406 -0.00037618 -0.0155054
3 1 -0.913906 0.590347 -3.60506 -0.0044293 0.000515038 -0.0203838
56 1 0.291546 2.24694 -4.60886 0.00181126 -0.0024561 -0.0191265
27 1 1.43639 0.302994 -6.30157 0.00635017 -0.00502026 -0.0120903
51 1 2.16715 1.55037 -6.13192 0.00396589 -0.00138617 -0.022702
25 1 4.29241 0.333882 -5.9805 0.0143614 -0.00115116 -0.0225099
49 1 3.57619 1.53502 -5.8785 0.00418954 0.00142143 -0.011724
38 1 5.4121 0.068412 -5.08961 0.00988926 0.000590443 -0.0274914
32 1 1.58709 2.52867 -5.25286 -0.00432846 -0.00437079 -0.0117514
31 1 3.93856 2.50755 -4.93068 0.00439629 0.0042429 -0.0189014
10 1 2.70312 3.11241 -4.51896 0.00377781 -0.00653849 -0.0131412
14 1 5.67446 1.00813 -4.04286 0.00643261 0.00176716 -0.0164078
55 1 4.96389 2.20494 -3.97986 0.0042581 0.00329589 -0.0261349
54 1 0.1473 2.60374 -3.19439 0.00499175 0.0006127 -0.0115429
9 1 2.48752 3.47773 -3.1498 0.00391878 -0.0021314 -0.0248416
19 1 -0.541933 -1.1262 -1.90237 -0.000977738 -0.00100439 -0.0233847
58 1 0.0623972 -2.36766 -1.98609 -0.000216693 0.000941587 -0.0180055
43 1 -0.28917 -0.251806 -0.833809 -0.00154377 -0.000417281 -0.0147654
2 1 5.81368 -0.790815 -2.4638 0.00626951 0.000601824 -0.0102711
59 1 4.73396 -2.8141 -2.84696 0.000838715 -0.00261775 -0.0147604
11 1 2.24235 -3.30638 -1.46712 0.000332806 0.000619326 -0.0101024
57 1 4.54601 -2.47867 -1.47126 0.00461708 -0.00199335 -0.0140713
34 1 0.98942 -2.71957 -1.0145 -0.00109295 0.00367287 -0.0148264
15 1 5.22848 -1.21345 -1.21844 0.00808117 0.000111661 -0.0132561
33 1 3.30415 -2.68724 -0.813533 0.00014587 0.00258855 -0.01527
39 1 4.64631 -0.253181 -0.347113 0.00690228 -0.00274596 -0.0153517
24 1 0.680651 -0.509414 0.133683 -0.0075007 -0.000417452 -0.0163967
48 1 1.35902 -1.77634 0.0206694 -0.00398543 -6.26136e-05 -0.0226702
46 1 2.80346 -1.78175 0.116835 0.00145916 -0.00121936 -0.0149204
22 1 3.44121 -0.539173 0.366349 0.00286873 0.0054336 -0.017143
17 1 -0.602858 1.53344 -2.62646 -0.00464239 -0.00833083 -0.0162831
41 1 -0.292754 1.12898 -1.24779 -0.00109893 -0.00302909 -0.0125282
30 1 1.28439 3.11928 -2.54195 0.00366531 -0.00289636 -0.0210131
1 1 5.95298 0.552756 -2.75523 0.00788539 0.00461539 -0.0244603
53 1 4.81262 2.59008 -2.64703 -0.00346225 -0.00523766 -0.0220179
29 1 3.59231 3.22436 -2.23349 0.00361614 -0.00887443 -0.0160804
13 1 5.30292 1.4935 -1.8968 -0.00240436 0.00286218 -0.0166076
23 1 0.790348 1.74649 -0.491905 0.00288241 0.000451788 -0.0139224
47 1 1.6138 2.63954 -1.25065 -0.00726012 -0.00144702 -0.0194678
37 1 4.73891 1.11764 -0.635409 0.00525817 -0.00167071 -0.016816
45 1 3.0018 2.76824 -1.00055 0.00618909 -0.00338774 -0.0182254
6 1 1.35111 0.702193 0.267184 0.00165182 -0.00128751 -0.0142219
21 1 3.52995 1.75132 -0.159103 -0.00154529 -0.00184832 -0.0222734
5 1 2.74423 0.740798 0.515929 0.00227278 -0.00367462 -0.0172544
61 1 -13.6674 -11.9461 19.9999 0 0 0
62 1 -13.1228 -10.6724 19.9999 0 0 0
63 1 -13.7825 -9.34696 19.9999 0 0 0
64 1 -13.0772 -8.00396 19.9999 0 0 0
65 1 -13.7542 -6.79742 19.9999 0 0 0
81 1 -11.507 -10.5408 19.9999 0 0 0
82 1 -11.5331 -8.01671 19.9999 0 0 0
91 1 -10.7591 -11.6424 19.9999 0 0 0
92 1 -10.8949 -9.22888 20.1237 -0.000474761 0.00388836 -0.00291608
93 1 -10.7881 -6.78237 20.0133 7.68839e-05 -0.00251697 -0.00571133
101 1 -9.52473 -11.6468 19.9999 0 0 0
102 1 -8.74136 -10.5124 19.9999 0 0 0
103 1 -9.44534 -9.24905 20.1315 -0.000387125 0.00989943 0.00307
104 1 -8.67021 -8.05046 20.3756 0.0134546 -0.00607746 -0.0025523
105 1 -9.34402 -6.77593 20.2674 -0.00738875 0.000362092 -0.00296485
121 1 -7.27873 -10.5146 19.9999 0 0 0
122 1 -7.21798 -8.04306 20.4357 -0.0031123 0.00661221 0.00150242
131 1 -6.50232 -11.6488 19.9999 0 0 0
132 1 -6.61997 -9.25707 20.2529 -0.00261686 0.00463185 -0.00551429
133 1 -6.47194 -6.85222 20.5912 -0.00474136 -0.0107272 -0.00311578
141 1 -5.25854 -11.6473 19.9999 0 0 0
142 1 -4.47674 -10.5145 19.9999 0 0 0
143 1 -5.22943 -9.32535 20.2221 0.0113149 0.000488246 -0.00768992
144 1 -4.42732 -8.11583 20.3654 0.00363124 0.000707634 0.00202192
145 1 -5.08649 -6.89162 20.5962 0.0139801 -0.00581132 0.00406354
161 1 -3.01281 -10.5144 19.9999 0 0 0
162 1 -3.01672 -8.13581 20.3392 -0.00458399 -0.00886099 -0.00365121
171 1 -2.23133 -11.6474 19.9999 0 0 0
172 1 -2.25596 -9.33323 20.1903 0.00327858 0.0054364 0.0060402
173 1 -2.33342 -6.86387 20.4215 0.0112663 -0.0019827 -0.00842913
181 1 -0.986751 -11.6474 19.9999 0 0 0
182 1 -0.205108 -10.5143 19.9999 0 0 0
183 1 -0.87078 -9.29246 20.1358 -0.0052202 0.00520713 0.00687777
184 1 -0.186957 -8.05302 19.9442 -0.00359208 -0.00208108 -0.000248612
185 1 -0.992193 -6.84548 19.9754 0.00612219 -0.0132625 -0.00465381
201 1 1.25901 -10.5143 19.9999 0 0 0
202 1 1.19709 -8.042 19.7213 0.00577771 -0.00373171 -0.00633196
211 1 2.0406 -11.6474 19.9999 0 0 0
212 1 1.9173 -9.2413 20.0098 0.0105661 -9.62668e-05 0.00274133
213 1 1.91619 -6.84593 19.7425 -0.00279326 -0.000503867 -0.0140138
221 1 3.28523 -11.6473 19.9999 0 0 0
222 1 4.06705 -10.5143 19.9999 0 0 0
223 1 3.29855 -9.26111 20.1201 0.00841375 0.00297856 -0.00964118
224 1 4.03193 -8.03101 20.0042 -0.0107124 0.00953212 0.00613492
225 1 3.34102 -6.74079 19.9764 -0.00227716 -0.00737063 -0.00725173
241 1 5.53108 -10.5143 19.9999 0 0 0
242 1 5.51016 -8.06153 20.1038 0.00449815 0.00461354 0.000266599
251 1 6.31174 -11.6474 19.9999 0 0 0
252 1 6.25689 -9.26361 20.1474 -0.00268226 0.00628079 -0.000429336
253 1 6.19726 -6.79602 20.1669 0.0136806 0.00603939 0.0121718
261 1 7.55524 -11.6498 19.9999 0 0 0
263 1 7.68738 -9.20636 20.234 -0.00583657 -0.00549837 0.0100663
265 1 7.62555 -6.79896 20.408 -0.000836392 -0.0102806 0.00509875
262 1 8.33779 -10.5154 19.9999 0 0 0
264 1 8.37991 -7.98067 20.2924 0.00274544 -0.0105641 0.000362276
281 1 9.79556 -10.5245 19.9999 0 0 0
282 1 9.842 -7.96728 20.2936 -0.00194798 -0.00176188 0.00604392
291 1 10.5816 -11.6418 19.9999 0 0 0
292 1 10.5027 -9.1852 20.0772 -0.00211308 -0.00354097 0.000616642
293 1 10.501 -6.74811 20.1743 -0.00043698 -0.000844074 -0.000484505
301 1 11.8019 -11.7522 19.9999 0 0 0
302 1 12.7161 -10.5156 19.9999 0 0 0
303 1 11.8934 -9.22642 19.9999 0 0 0
304 1 12.655 -8.00627 19.9999 0 0 0
305 1 11.8992 -6.77596 19.9999 0 0 0
321 1 14.087 -10.4984 19.9999 0 0 0
322 1 14.0714 -8.01298 19.9999 0 0 0
66 1 -13.0658 -5.54976 19.9999 0 0 0
67 1 -13.7179 -4.30197 19.9999 0 0 0
68 1 -13.0406 -3.0891 19.9999 0 0 0
69 1 -13.6883 -1.86008 19.9999 0 0 0
70 1 -13.0424 -0.636745 19.9999 0 0 0
83 1 -11.5387 -5.54743 19.9999 0 0 0
84 1 -11.5566 -3.09089 19.9999 0 0 0
85 1 -11.5625 -0.637245 19.9999 0 0 0
94 1 -10.8329 -4.36968 19.9551 0.00432571 0.00637288 -0.00187368
95 1 -10.8153 -1.83629 20.0423 -0.00211152 0.00231227 -0.00631279
106 1 -8.65839 -5.54503 20.3635 0.00255381 -0.00415164 0.00140982
107 1 -9.44873 -4.35955 20.2086 0.0100752 -0.00326856 -0.00981691
108 1 -8.75218 -3.15571 20.1925 -0.00607208 -0.00533164 -0.000705173
109 1 -9.3965 -1.85003 19.9431 -0.00198481 0.00777736 -0.00814045
110 1 -8.61853 -0.629469 19.8551 -0.000323026 0.000177453 -0.00903986
125 1 -7.1892 -0.593131 20.2005 -0.00200017 -0.00334984 -0.0137355
124 1 -7.35533 -3.17111 20.3734 0.00964117 0.00273779 -0.00796533
123 1 -7.24328 -5.63668 20.6166 0.00262519 -0.00392363 0.0032861
186 1 -0.323978 -5.67953 19.8205 0.0115976 -0.00374369 -0.00371961
134 1 -6.64338 -4.39302 20.5796 0.0037031 -0.00289087 -0.00646917
163 1 -3.02991 -5.65766 20.565 0.000289019 -0.00934464 0.00417362
135 1 -6.57732 -1.92619 20.3597 -0.003187 -0.00607918 -0.0145956
146 1 -4.45242 -5.65173 20.7093 0.0077005 -0.00194224 0.00710059
147 1 -5.21869 -4.42358 20.7133 -0.00792911 -0.0143272 0.00059218
148 1 -4.52309 -3.20272 20.5747 -0.000260556 -0.00423431 0.000421513
149 1 -5.19885 -1.89264 20.5845 -0.00236787 -0.000882406 -0.00529759
164 1 -3.08205 -3.16377 20.3707 0.0111532 -0.00217653 0.0036642
174 1 -2.35529 -4.41822 20.3324 -0.00233935 0.00885333 -0.000195132
150 1 -4.49833 -0.612926 20.5451 -0.00420156 -0.00884688 0.00800743
187 1 -1.02228 -4.423 19.9624 0.00946856 -0.00211527 -0.00424256
165 1 -3.11385 -0.607343 20.4912 -0.000405696 0.0045749 0.00494971
175 1 -2.42944 -1.87726 20.248 -0.00205504 -0.00337104 -0.00546939
188 1 -0.314629 -3.17401 19.9474 0.00106542 -0.00588744 -0.00620751
189 1 -1.02421 -1.8931 20.0216 -0.00347339 0.00824713 0.00165979
190 1 -0.37424 -0.673654 20.117 0.00119212 -0.000340033 -0.00101953
203 1 1.13248 -5.66453 19.5883 -0.00379805 -0.00149594 -0.00522454
226 1 3.95669 -5.47994 20.2602 -0.00210591 0.0117791 0.0026696
243 1 5.42762 -5.57646 20.3819 0.00204444 -0.00106087 0.00215772
254 1 6.07847 -4.30128 20.4413 -0.00324996 0.00318702 0.0154672
255 1 6.18163 -1.85335 20.0176 0.00473161 -0.00541962 0.00549272
227 1 3.14358 -4.3349 19.9934 -0.00419561 0.00713207 0.00741968
244 1 5.3442 -3.07196 20.1306 0.00214742 0.00124186 0.00332848
214 1 1.77581 -4.39422 19.653 0.00196744 0.000611861 0.000858725
228 1 3.91947 -3.0981 20.0156 0.00752377 0.00330534 0.00460583
245 1 5.44096 -0.656853 19.8009 0.00412578 0.000522761 0.00899399
229 1 3.26518 -1.87036 19.9372 -0.00382154 0.00162751 0.00155188
230 1 4.02281 -0.653178 19.8778 0.0111184 0.00232995 0.00767034
204 1 1.08317 -3.1434 19.7739 0.0040849 0.0122189 -0.00247777
215 1 1.76014 -1.88202 19.912 0.00684676 -0.0130036 -0.00533779
205 1 1.04984 -0.650583 20.003 0.00603349 -0.000200148 -0.00129256
269 1 7.60834 -1.87354 20.1409 0.00500518 -0.000141857 0.00495013
267 1 7.55524 -4.36745 20.4806 -0.00420027 -0.0013871 -0.00100271
266 1 8.36002 -5.55018 20.5064 0.00449533 -0.0087275 0.0100116
268 1 8.30872 -3.13884 20.4241 0.0075889 -0.00424669 0.00528789
270 1 8.32395 -0.613202 20.1532 -0.000580531 -0.00192268 0.00382837
283 1 9.81118 -5.52701 20.4638 0.000867805 -0.0125039 -0.00934267
284 1 9.76572 -3.081 20.371 0.00930154 -0.00244506 0.00684088
285 1 9.7639 -0.610318 20.1634 -0.00011333 0.00482515 0.000277174
294 1 10.4996 -4.30835 20.2566 4.41895e-05 -0.00225261 -0.00176155
295 1 10.5166 -1.85623 20.2403 0.00305002 0.0055547 -0.00461432
306 1 12.6496 -5.55341 19.9999 0 0 0
307 1 11.9041 -4.32686 19.9999 0 0 0
308 1 12.647 -3.09734 19.9999 0 0 0
309 1 11.9037 -1.86828 19.9999 0 0 0
310 1 12.6457 -0.637745 19.9999 0 0 0
323 1 14.0539 -5.56516 19.9999 0 0 0
324 1 14.0472 -3.10129 19.9999 0 0 0
325 1 14.0438 -0.638188 19.9999 0 0 0
71 1 -13.6826 0.591886 19.9999 0 0 0
72 1 -13.0424 1.82079 19.9999 0 0 0
73 1 -13.6895 3.04359 19.9999 0 0 0
74 1 -13.0413 4.27397 19.9999 0 0 0
75 1 -13.7195 5.48914 19.9999 0 0 0
86 1 -11.5623 1.82169 19.9999 0 0 0
87 1 -11.5564 4.27485 19.9999 0 0 0
96 1 -10.7867 0.605581 19.8721 0.000130993 0.000547351 0.00439055
97 1 -10.8305 3.03301 19.9882 0.00401649 -0.00178194 0.00696889
98 1 -10.8563 5.51571 20.0533 -0.00279023 -0.00912506 0.0040084
111 1 -9.36406 0.578276 19.8441 0.00376054 0.00494003 -0.0104178
112 1 -8.6346 1.88336 19.8223 0.00343849 0.00158224 -0.00679222
113 1 -9.34912 3.09035 19.8411 0.00274159 0.00207952 -0.000517077
114 1 -8.70194 4.27921 20.2435 0.00341712 -0.00369392 -0.000413659
115 1 -9.3968 5.56323 20.1433 -0.00729489 -0.00113195 0.000999045
126 1 -7.27136 1.90035 20.1527 0.00516182 0.0051316 -0.00919186
127 1 -7.31025 4.44766 20.3909 0.00976232 0.00781802 -0.00242397
138 1 -6.55187 5.66569 20.7042 0.00265151 0.011856 0.0075745
195 1 -0.987804 5.58049 20.108 0.00688849 -0.00114405 -0.0104836
155 1 -5.15449 5.68153 20.9316 -0.00419275 0.0171663 0.00527113
178 1 -2.36907 5.59368 20.5151 0.000143912 0.00523929 -0.00568552
137 1 -6.63386 3.16962 20.3466 0.00435784 0.00881238 -0.00927968
153 1 -5.22273 3.23636 20.5864 0.00475434 0.00823441 -0.00125948
154 1 -4.51562 4.39241 20.8289 0.00366557 0.00161077 -0.0118894
136 1 -6.56734 0.632281 20.3191 0.000298714 -0.00689055 -0.0112609
151 1 -5.12493 0.684157 20.5831 0.0032822 0.00215389 -0.0114986
167 1 -3.09936 4.35362 20.6832 0.00727975 0.00127049 0.00184668
152 1 -4.50601 1.95526 20.5448 0.00168037 0.00448859 0.000600101
177 1 -2.39057 3.11468 20.4734 -0.00708784 0.000226522 -0.000267665
194 1 -0.326774 4.34745 20.0383 -0.0024654 -0.0112805 0.00420087
166 1 -3.08233 1.89966 20.5094 0.0044784 0.004958 0.00413435
176 1 -2.44395 0.6594 20.4545 -0.0143959 -0.000216847 0.00486882
193 1 -0.970532 3.11731 20.278 0.00213264 0.00896095 0.00637213
191 1 -1.02509 0.634834 20.2376 0.00200641 -0.00529558 0.000446562
192 1 -0.287741 1.83388 20.2793 -0.00343373 0.00214351 -0.00160764
218 1 1.88475 5.48265 19.9383 -0.000157116 -0.00575994 -0.00172832
235 1 3.25208 5.50442 20.2326 0.00481784 -0.00449838 -5.6609e-05
247 1 5.32788 4.31121 20.4498 -0.000192318 -0.001713 0.0071409
257 1 6.05172 3.04176 20.4493 -0.0110174 -0.00172869 0.0139293
258 1 6.09682 5.53175 20.4557 0.00516305 0.00352937 0.00896256
234 1 3.90557 4.24232 20.3266 -0.00117244 -0.00462933 -0.00253523
256 1 6.17632 0.578664 19.9484 0.0104685 0.00327675 -6.40378e-06
246 1 5.3977 1.84576 20.0481 0.00666256 0.00226753 -0.000673088
233 1 3.27059 2.98963 20.252 0.000880891 -0.00136082 0.00519212
231 1 3.29392 0.552816 19.8965 0.0144431 -0.00175828 0.00867398
232 1 3.95444 1.80233 19.974 0.00367406 0.00940072 0.00470508
207 1 1.08489 4.27844 19.9414 -0.00300199 0.00731772 0.00695961
217 1 1.81259 3.04088 20.0864 -0.00231437 0.00553554 -0.00886613
206 1 1.12971 1.78446 20.0425 0.00286688 -0.00717116 -0.00178341
216 1 1.85498 0.558613 19.9725 0.00118694 0.00133858 4.90257e-05
271 1 7.57604 0.612381 20.086 0.00432107 0.00312669 0.00565966
275 1 7.55469 5.5068 20.4563 -0.00275917 0.0115193 0.00850842
273 1 7.52514 3.02128 20.5447 0.00332154 0.00641305 0.0011346
272 1 8.33031 1.8533 20.334 -0.0013537 0.00156389 0.010608
274 1 8.30284 4.26915 20.6129 0.00689306 0.0029163 0.00151478
286 1 9.76744 1.82104 20.1546 -0.00935811 -0.00466225 0.00759952
287 1 9.72589 4.2397 20.4388 -0.000715767 -0.00355038 -0.00490151
296 1 10.5054 0.576318 20.061 -0.00931384 0.00666961 0.00241038
297 1 10.4739 3.04475 20.1524 -0.00464704 1.65066e-05 -0.00379134
298 1 10.5329 5.44976 20.3676 0.00614443 -0.00747315 0.00506471
311 1 11.9034 0.592385 19.9999 0 0 0
312 1 12.6457 1.82255 19.9999 0 0 0
313 1 11.9038 3.05326 19.9999 0 0 0
314 1 12.6466 4.28301 19.9999 0 0 0
315 1 11.9041 5.51379 19.9999 0 0 0
326 1 14.0439 1.82305 19.9999 0 0 0
327 1 14.0468 4.28589 19.9999 0 0 0
76 1 -13.0678 6.73987 19.9999 0 0 0
77 1 -13.743 7.99662 19.9999 0 0 0
78 1 -13.076 9.22053 19.9999 0 0 0
79 1 -13.6781 10.6114 19.9999 0 0 0
80 1 -13.0646 11.9529 19.9999 0 0 0
88 1 -11.5395 6.7281 19.9999 0 0 0
89 1 -11.5535 9.18478 19.9999 0 0 0
90 1 -11.7099 11.6077 19.9999 0 0 0
99 1 -10.8696 7.93369 20.1307 -0.00649249 0.0035374 0.00569317
100 1 -10.9027 10.4758 19.9999 0 0 0
116 1 -8.62763 6.81045 20.2742 0.00584811 -0.00333846 0.00287377
117 1 -9.43877 7.99829 20.2496 -0.000937069 0.00498058 -0.00634037
118 1 -8.74099 9.15824 20.0938 -4.11644e-05 0.00135597 -0.00476324
119 1 -9.37207 10.4804 19.9999 0 0 0
120 1 -8.62688 11.6228 19.9999 0 0 0
130 1 -7.38724 11.6024 19.9999 0 0 0
129 1 -7.29881 9.21342 20.1086 -0.0169684 -0.000460466 -0.0048176
128 1 -7.22271 6.86806 20.4775 -0.00531131 -0.000660118 0.00188345
139 1 -6.491 8.08486 20.3722 -0.00341984 0.00663034 -0.0111646
140 1 -6.60892 10.469 19.9999 0 0 0
156 1 -4.37433 6.9053 20.7907 0.0124961 0.00331807 0.00397539
157 1 -5.12902 8.0672 20.419 -0.000992717 0.0100424 0.00728662
158 1 -4.42989 9.23895 20.1748 0.0193577 0.00268169 0.000311116
159 1 -5.14663 10.4689 19.9999 0 0 0
160 1 -4.36691 11.6023 19.9999 0 0 0
168 1 -2.95764 6.86574 20.7031 0.00519647 -0.000332038 -0.00427848
169 1 -3.02934 9.24327 20.1931 -0.00118441 -0.00602063 -0.00512515
170 1 -3.12269 11.6018 19.9999 0 0 0
179 1 -2.26908 8.03691 20.3824 0.00753972 0.0154043 -0.00130527
180 1 -2.34103 10.4689 19.9999 0 0 0
196 1 -0.194658 6.75157 19.9512 -0.00263953 -0.00161789 -0.00373161
197 1 -0.883546 7.99592 20.109 0.00693452 0.0129074 -0.00300017
198 1 -0.147876 9.19476 20.0434 0.00504313 -0.00196139 -0.00281712
199 1 -0.876963 10.4688 19.9999 0 0 0
200 1 -0.0953724 11.6018 19.9999 0 0 0
208 1 1.2164 6.70252 19.8016 -0.00178217 0.00830786 -0.00171774
209 1 1.28537 9.20266 20.1271 0.00543634 -0.00346561 -0.00765545
210 1 1.14924 11.6018 19.9999 0 0 0
219 1 1.91225 7.90043 20.0048 -0.00340005 0.00542577 -0.0131114
220 1 1.93091 10.4688 19.9999 0 0 0
236 1 3.9958 6.7306 20.3712 -0.00168076 0.00662968 -0.00118885
237 1 3.29699 7.94623 20.0744 -0.00172723 -0.0062624 0.001996
238 1 4.04253 9.17446 20.0572 -0.00505221 0.00285823 -0.00946161
239 1 3.39506 10.4687 19.9999 0 0 0
240 1 4.17656 11.6018 19.9999 0 0 0
248 1 5.42022 6.78231 20.4002 0.00235843 0.00829546 -0.00216532
249 1 5.45743 9.19142 20.0971 0.00169097 -0.000431858 0.00482638
250 1 5.4212 11.6017 19.9999 0 0 0
259 1 6.16431 8.00244 20.3236 0.000222092 0.00882793 0.00380759
260 1 6.20335 10.4685 19.9999 0 0 0
277 1 7.63575 7.95822 20.2782 -0.0104761 -0.00373406 0.0120849
276 1 8.34082 6.69528 20.4288 0.00120918 -0.00096296 0.00134274
278 1 8.39146 9.15882 20.1473 0.00275048 -0.00318031 0.00466961
279 1 7.66711 10.4687 19.9999 0 0 0
280 1 8.44529 11.6024 19.9999 0 0 0
288 1 9.82032 6.67234 20.4146 -0.00283364 0.0010419 -0.00722706
289 1 9.82103 9.18756 20.1587 0.00394224 0.00195342 -0.0049975
290 1 9.6873 11.6101 19.9999 0 0 0
299 1 10.4952 7.94739 20.1699 0.00306303 -0.00420235 0.0088323
300 1 10.4752 10.4755 19.9999 0 0 0
316 1 12.6473 6.74288 19.9999 0 0 0
317 1 11.9051 7.97805 19.9999 0 0 0
318 1 12.6583 9.19198 19.9999 0 0 0
319 1 11.9246 10.4937 19.9999 0 0 0
320 1 12.7709 11.5297 19.9999 0 0 0
328 1 14.0456 6.75188 19.9999 0 0 0
329 1 14.0237 9.17042 19.9999 0 0 0
330 1 13.9415 11.792 19.9999 0 0 0
