ITEM: TIMESTEP
47700
ITEM: NUMBER OF ATOMS
330
ITEM: BOX BOUNDS pp pp pp
-1.4715758017245314e+01 1.5057610017245315e+01
-1.2710055654020760e+01 1.2664508654020761e+01
-5.0001035148846022e+01 1.0000103514884636e+02
ITEM: ATOMS id type x y z vx vy vz
4 1 0.0167051 -0.802678 -11.2537 0.00383562 -0.00216374 -0.0174468
19 1 0.317639 -1.23754 -9.9646 0.00232471 -0.001035 -0.0186905
20 1 0.579416 -1.74078 -12.1625 0.0037732 0.000376211 -0.0211355
8 1 3.2417 -0.798207 -14.2892 0.00106088 0.00508696 -0.0155392
7 1 4.65719 -0.823713 -14.0582 0.0013042 -0.00534049 -0.0127089
44 1 1.2169 -1.26359 -13.3242 0.0026821 0.00615513 -0.0160235
28 1 2.43072 -1.85853 -13.7756 -0.000557664 0.0036822 -0.012584
26 1 5.16788 -1.90164 -13.2974 0.00642318 0.000203286 -0.0152681
52 1 3.00153 -2.9171 -12.988 0.000240257 0.00101396 -0.0168621
40 1 6.18973 -1.29713 -12.4272 0.00031642 -0.00252113 -0.0106775
50 1 4.33808 -2.9674 -12.806 0.00204417 -0.00228601 -0.0142899
60 1 1.11708 -2.84929 -11.4377 0.00305671 0.00325558 -0.0148363
36 1 2.3491 -3.4591 -11.8756 0.00719768 0.00137486 -0.0197475
35 1 4.60669 -3.45254 -11.4783 0.00606998 -0.00341815 -0.0175226
16 1 6.45489 -1.83481 -11.1491 -0.00448769 -0.00120101 -0.0198628
12 1 3.369 -3.76575 -10.9053 0.00739082 0.00123195 -0.0162934
59 1 5.69655 -2.90307 -10.6754 0.00910448 4.67585e-05 -0.0258592
58 1 0.94875 -2.49537 -10.0585 0.00323714 -0.00278185 -0.0248123
2 1 6.67312 -0.906363 -10.1334 0.00459243 -0.00711645 -0.0212896
43 1 0.540327 -0.329665 -8.9139 0.0041817 -0.00302518 -0.0210775
11 1 3.13695 -3.42965 -9.48632 -0.00202148 0.0024862 -0.0202807
57 1 5.46526 -2.587 -9.29069 -0.00220689 0.00266629 -0.0238742
34 1 1.96585 -2.796 -9.11553 0.000982292 -0.00229747 -0.0171751
15 1 6.1053 -1.36854 -8.94043 -0.0022502 0.00589635 -0.0163872
33 1 4.16072 -2.82311 -8.67215 -0.000937735 0.00356413 -0.0114033
3 1 0.00609552 0.624045 -11.52 0.00533865 -0.00158801 -0.0152801
17 1 0.313539 1.55324 -10.4566 0.00550249 -0.00762591 -0.0176263
18 1 0.641313 1.09849 -12.7197 0.00783533 0.00359335 -0.0209835
27 1 2.55579 0.467139 -14.1597 -0.00418246 0.00368707 -0.0197485
42 1 1.26744 0.118196 -13.5951 -0.0061108 -0.00181452 -0.0160239
51 1 3.13498 1.74579 -13.8996 0.000496653 0.00166714 -0.0175242
25 1 5.25036 0.423341 -13.6476 -0.00185518 -0.00397315 -0.0147097
49 1 4.53802 1.64723 -13.5245 0.0033034 0.00728261 -0.010281
56 1 1.27908 2.32333 -12.3747 0.00662295 0.00233802 -0.0193379
38 1 6.25931 0.0941457 -12.6543 0.00552654 -0.00530432 -0.0140755
32 1 2.51633 2.62381 -12.9405 0.0069047 0.0049686 -0.0157494
31 1 4.82177 2.60038 -12.5396 -1.43644e-05 0.003828 -0.0203371
10 1 3.55897 3.17461 -12.1329 0.00251841 -0.00252746 -0.0187041
14 1 6.45105 0.975822 -11.6202 0.000509387 0.000995649 -0.016906
55 1 5.75767 2.21859 -11.5154 -0.00767563 0.00259221 -0.0165113
54 1 1.12432 2.60825 -10.9906 0.00378813 -0.00354237 -0.0186849
9 1 3.44046 3.55762 -10.7627 -0.000169826 0.000108535 -0.0245093
1 1 6.79999 0.503218 -10.2963 0.00700893 -0.00298385 -0.0187799
30 1 2.1661 3.17381 -10.2242 0.0102816 0.00349298 -0.0184116
53 1 5.67374 2.60579 -10.1193 -0.00122565 -0.00104391 -0.0213979
29 1 4.50992 3.30056 -9.73576 0.00209057 -0.00442817 -0.0221944
13 1 6.25258 1.48957 -9.39661 0.00603376 0.00476906 -0.0178313
41 1 0.536143 1.09396 -9.11611 0.00628987 -0.00256157 -0.0194574
47 1 2.4206 2.74517 -8.88807 -0.00256869 0.0052844 -0.0194296
39 1 5.55274 -0.34168 -8.06981 -0.00614839 0.0029287 -0.025274
24 1 1.5871 -0.582814 -7.9625 0.00371345 -0.00553184 -0.0210273
48 1 2.23753 -1.84294 -8.09927 0.00165491 -0.00341922 -0.0151237
46 1 3.62541 -1.8668 -7.85328 -0.000221212 -0.00444986 -0.0175364
22 1 4.27915 -0.654581 -7.45892 -0.00123209 -0.00598328 -0.0139172
23 1 1.61846 1.69275 -8.34958 0.00155851 -0.000564156 -0.0210911
37 1 5.59419 1.06768 -8.31357 0.00234225 0.0038441 -0.0183471
45 1 3.81567 2.78694 -8.58926 0.00308862 -0.00270277 -0.00711955
6 1 2.2827 0.623091 -7.64383 0.00472433 0.00638625 -0.0165416
21 1 4.4013 1.67326 -7.84923 0.00106051 -0.00149399 -0.0230994
5 1 3.60321 0.606445 -7.36998 0.00075334 -0.00139104 -0.0110241
61 1 -13.6674 -11.9461 19.9999 0 0 0
62 1 -13.1228 -10.6724 19.9999 0 0 0
63 1 -13.7825 -9.34696 19.9999 0 0 0
64 1 -13.0772 -8.00396 19.9999 0 0 0
65 1 -13.7542 -6.79742 19.9999 0 0 0
81 1 -11.507 -10.5408 19.9999 0 0 0
82 1 -11.5331 -8.01671 19.9999 0 0 0
91 1 -10.7591 -11.6424 19.9999 0 0 0
92 1 -10.8631 -9.22241 20.1068 -1.00588e-05 0.00298659 -0.00765121
93 1 -10.7971 -6.74417 19.9949 -0.00105676 0.00282873 -0.00538569
101 1 -9.52473 -11.6468 19.9999 0 0 0
102 1 -8.74136 -10.5124 19.9999 0 0 0
103 1 -9.40276 -9.15807 20.1613 0.00786194 0.000620526 -0.00957112
104 1 -8.67096 -7.96184 20.0682 0.0123061 0.00226999 -0.00581986
105 1 -9.3751 -6.71909 20.0107 -0.0023606 -0.0105471 0.0096658
121 1 -7.27873 -10.5146 19.9999 0 0 0
122 1 -7.25063 -7.99672 20.1232 0.0013044 -0.002597 -0.00617247
131 1 -6.50232 -11.6488 19.9999 0 0 0
132 1 -6.53418 -9.22781 20.1471 -0.00573989 0.00674822 0.00285806
133 1 -6.52638 -6.79308 20.1423 -0.0108798 -0.00177692 -0.00763882
141 1 -5.25854 -11.6473 19.9999 0 0 0
142 1 -4.47674 -10.5145 19.9999 0 0 0
143 1 -5.13943 -9.21308 20.1283 0.000425299 0.00292872 -0.00328973
144 1 -4.41709 -7.98688 20.075 -0.00735257 -0.00206462 -3.45499e-05
145 1 -5.12737 -6.72888 20.0526 -6.25972e-05 -0.00361782 -0.00825845
161 1 -3.01281 -10.5144 19.9999 0 0 0
162 1 -3.01035 -7.98395 20.0224 0.00641979 -0.00616401 -0.00534307
171 1 -2.23133 -11.6474 19.9999 0 0 0
172 1 -2.30088 -9.23865 19.9951 0.00457453 -0.00550122 0.0144849
173 1 -2.2921 -6.74909 20.1357 -0.00703664 0.00160997 -0.00476447
181 1 -0.986751 -11.6474 19.9999 0 0 0
182 1 -0.205108 -10.5143 19.9999 0 0 0
183 1 -0.936015 -9.26457 20.0333 0.0025971 -0.00265984 0.00252691
184 1 -0.170377 -8.06841 20.0021 0.0033665 0.0101511 -0.00256956
185 1 -0.883979 -6.81163 20.1981 -0.00416593 0.00183228 -0.00305256
201 1 1.25901 -10.5143 19.9999 0 0 0
202 1 1.22224 -8.08246 20.0395 -0.00333945 -0.00361537 0.000547669
211 1 2.0406 -11.6474 19.9999 0 0 0
212 1 2.01677 -9.26899 20.0276 0.00491209 -0.0048118 -0.00836727
213 1 1.87729 -6.80156 19.9502 -0.0101274 -0.00644015 -0.00724097
221 1 3.28523 -11.6473 19.9999 0 0 0
222 1 4.06705 -10.5143 19.9999 0 0 0
223 1 3.36422 -9.25331 19.9475 0.003187 0.00668657 0.000699024
224 1 4.07277 -8.02939 19.9814 -0.00133145 -0.00561995 -0.0048915
225 1 3.30386 -6.75724 19.9309 -0.00748367 -0.00611769 -0.00356004
241 1 5.53108 -10.5143 19.9999 0 0 0
242 1 5.51981 -8.00188 19.8371 0.00246341 0.00492096 0.00014799
251 1 6.31174 -11.6474 19.9999 0 0 0
252 1 6.21709 -9.19227 19.8995 0.00359228 0.00406355 -0.000499378
253 1 6.22114 -6.77369 19.6124 -0.00351633 0.00733237 -0.00484785
261 1 7.55524 -11.6498 19.9999 0 0 0
265 1 7.61543 -6.85731 19.444 0.000157697 -0.0048825 -0.00353546
263 1 7.5869 -9.24524 19.8268 0.000311734 0.00318511 0.00144922
262 1 8.33779 -10.5154 19.9999 0 0 0
264 1 8.29758 -8.06049 19.6778 -0.00145323 -0.00782677 0.00136709
281 1 9.79556 -10.5245 19.9999 0 0 0
282 1 9.75212 -8.05583 19.7295 0.0025441 -0.0081014 -0.00115332
291 1 10.5816 -11.6418 19.9999 0 0 0
292 1 10.4897 -9.27699 19.8174 0.00139021 -0.00963751 -0.00174742
293 1 10.5141 -6.8263 19.7711 -0.00446421 0.000350686 0.00103488
301 1 11.8019 -11.7522 19.9999 0 0 0
302 1 12.7161 -10.5156 19.9999 0 0 0
303 1 11.8934 -9.22642 19.9999 0 0 0
304 1 12.655 -8.00627 19.9999 0 0 0
305 1 11.8992 -6.77596 19.9999 0 0 0
321 1 14.087 -10.4984 19.9999 0 0 0
322 1 14.0714 -8.01298 19.9999 0 0 0
66 1 -13.0658 -5.54976 19.9999 0 0 0
67 1 -13.7179 -4.30197 19.9999 0 0 0
68 1 -13.0406 -3.0891 19.9999 0 0 0
69 1 -13.6883 -1.86008 19.9999 0 0 0
70 1 -13.0424 -0.636745 19.9999 0 0 0
83 1 -11.5387 -5.54743 19.9999 0 0 0
84 1 -11.5566 -3.09089 19.9999 0 0 0
85 1 -11.5625 -0.637245 19.9999 0 0 0
94 1 -10.8194 -4.28981 20.0579 0.000310091 -0.0110838 -0.00544522
95 1 -10.8391 -1.8785 20.1967 -0.00614952 0.00446208 -0.00889666
106 1 -8.61487 -5.51526 20.2013 -0.00102928 -0.00710597 0.0145213
107 1 -9.40194 -4.28644 20.2905 0.00459222 -0.00285175 -0.0015598
108 1 -8.7229 -3.0842 20.5642 -0.00196677 0.00105857 -0.00353008
109 1 -9.43525 -1.87637 20.4788 0.00280083 -4.77068e-05 -0.00743312
110 1 -8.71226 -0.621487 20.6334 -0.000527366 -0.000927452 -0.0056387
125 1 -7.26469 -0.617679 20.8056 -0.00595549 0.00611777 -0.00173881
123 1 -7.18272 -5.56594 20.2963 -0.00143139 -0.00188461 0.0108757
124 1 -7.26257 -3.1197 20.6925 -0.00671643 -0.00445402 0.000740914
186 1 -0.201043 -5.61841 19.968 -0.000868499 0.00301011 -0.00297643
134 1 -6.54152 -4.32021 20.4647 0.00473138 -0.0127766 0.0127693
163 1 -3.021 -5.47711 20.2567 -0.00481853 0.00835816 -0.00251409
135 1 -6.61871 -1.87914 20.6653 -0.00130936 -0.00312472 0.0083952
146 1 -4.44223 -5.50636 20.1626 -0.00391665 -0.00318689 -0.00786273
147 1 -5.12195 -4.28823 20.3577 -0.010824 0.000341813 0.011324
148 1 -4.45151 -3.08005 20.3421 -0.00704239 0.00318984 0.0146959
149 1 -5.17373 -1.83562 20.378 0.00313813 0.000121991 0.00165903
164 1 -3.04292 -3.04644 19.9539 0.00804131 -0.00303841 -0.00143903
174 1 -2.30128 -4.28585 20.0734 -0.00451908 -0.00268816 -0.0103984
150 1 -4.446 -0.674214 20.3021 0.00487732 6.4182e-05 0.00852853
187 1 -0.890018 -4.32306 19.7876 -0.00726943 0.0074404 -0.008025
165 1 -3.07148 -0.613991 19.6643 0.00469446 0.00119613 0.00191671
175 1 -2.38305 -1.83111 19.5591 0.00979745 -0.00105282 -0.000490389
188 1 -0.290463 -3.08144 19.3127 -0.00353232 -0.00456272 0.00214959
189 1 -0.945736 -1.83702 19.1815 -0.000777764 0.00599066 0.00108904
190 1 -0.227385 -0.669961 18.7805 0.00187756 -0.000188574 0.00227024
203 1 1.20171 -5.56981 19.9544 0.000221246 0.00337337 -0.000433804
226 1 4.00697 -5.53034 19.808 -0.000837335 0.000966187 -0.00447159
243 1 5.4317 -5.57639 19.7297 0.00218622 0.00731912 -0.00460441
254 1 6.16903 -4.34118 19.7198 -0.00240609 -0.00130549 -0.00242264
255 1 6.25986 -1.7996 19.9874 0.00304007 -0.00938525 -0.00779675
227 1 3.29517 -4.28964 19.63 -0.00635688 0.00282815 0.00667283
244 1 5.52272 -3.03143 19.7299 -0.00434939 0.00824938 -0.0016695
214 1 1.84675 -4.32404 19.7047 -0.000809376 0.00464615 -0.019917
228 1 4.10195 -3.0486 19.6894 0.0106562 0.00568838 0.00627049
245 1 5.48931 -0.589611 20.1155 0.00768857 -0.000284969 -0.00894771
229 1 3.36629 -1.84844 19.7088 -0.000162668 -0.00319331 -0.00615299
230 1 4.02776 -0.606673 19.893 0.00634128 0.00295261 0.0025551
204 1 1.13949 -3.10833 19.4813 -0.00168496 -0.0026991 -0.000421691
215 1 1.86672 -1.85415 19.3648 0.00778852 0.00583045 -0.00413001
205 1 1.21802 -0.666547 19.0181 0.00768078 -0.00180265 0.00673762
269 1 7.6818 -1.82242 19.894 0.00479828 0.00437599 -0.00576968
267 1 7.59738 -4.35425 19.5162 0.00028575 -0.0075881 -0.010156
266 1 8.33642 -5.59319 19.5575 -0.000764853 -0.00514089 -0.00506935
268 1 8.30929 -3.13912 19.584 0.00568478 -0.00101299 -0.0109043
270 1 8.42959 -0.613253 20.0506 -0.00148578 -0.0051279 -0.0127265
283 1 9.7656 -5.61624 19.7017 0.0088411 -0.00279549 -0.00197476
284 1 9.76295 -3.0995 19.663 -0.0113147 -0.0109398 -0.00787223
285 1 9.85911 -0.664455 20.0127 0.001299 0.000500373 -0.0106727
294 1 10.5328 -4.36537 19.7116 0.00237404 -0.00732375 -0.00364701
295 1 10.5438 -1.90097 19.9537 0.000581171 -0.0092931 -0.00538468
306 1 12.6496 -5.55341 19.9999 0 0 0
307 1 11.9041 -4.32686 19.9999 0 0 0
308 1 12.647 -3.09734 19.9999 0 0 0
309 1 11.9037 -1.86828 19.9999 0 0 0
310 1 12.6457 -0.637745 19.9999 0 0 0
323 1 14.0539 -5.56516 19.9999 0 0 0
324 1 14.0472 -3.10129 19.9999 0 0 0
325 1 14.0438 -0.638188 19.9999 0 0 0
71 1 -13.6826 0.591886 19.9999 0 0 0
72 1 -13.0424 1.82079 19.9999 0 0 0
73 1 -13.6895 3.04359 19.9999 0 0 0
74 1 -13.0413 4.27397 19.9999 0 0 0
75 1 -13.7195 5.48914 19.9999 0 0 0
86 1 -11.5623 1.82169 19.9999 0 0 0
87 1 -11.5564 4.27485 19.9999 0 0 0
96 1 -10.8492 0.556945 20.257 -0.00574541 -0.00434609 -0.0128321
97 1 -10.8418 3.02811 20.1671 0.00906971 -0.00261389 -0.00397259
98 1 -10.7973 5.48286 19.9415 -0.0108675 0.000385029 0.0172461
111 1 -9.45139 0.608402 20.5001 0.00888458 0.0017226 -0.00250208
112 1 -8.64684 1.84307 20.6166 0.00474665 0.0111928 -0.0140817
113 1 -9.3843 3.06599 20.4641 0.00140433 0.00708741 0.00117326
114 1 -8.6774 4.28236 20.2365 0.00474865 0.00133764 -0.00309959
115 1 -9.33452 5.51256 20.1456 -0.00534111 0.000198636 0.00943262
126 1 -7.27636 1.8277 20.6287 -0.00410297 0.00463569 0.00605209
127 1 -7.24228 4.28144 20.3505 0.000654541 -0.00360887 0.016398
138 1 -6.53211 5.51268 20.1971 -0.00223047 0.000330273 0.0120677
195 1 -0.897333 5.42045 19.9999 0.000383529 0.00719496 0.00146718
155 1 -5.0958 5.42272 20.1111 -0.0114345 0.000404561 -0.0031278
178 1 -2.2855 5.36438 20.0572 -0.00501556 0.00202799 0.000615101
137 1 -6.58375 3.02903 20.4386 -0.0018938 0.00642009 0.0103959
153 1 -5.17161 2.95864 20.2803 -0.00391509 -0.000832045 0.00808046
154 1 -4.44285 4.19646 20.1428 -0.00105145 -0.000171148 0.00649775
136 1 -6.54316 0.581412 20.602 0.000695846 0.00178961 0.00658002
151 1 -5.14887 0.575117 20.3555 -0.00591134 -0.00864203 0.012959
167 1 -3.0711 4.18388 19.988 -0.000396396 0.00469633 0.000967426
152 1 -4.45356 1.73109 20.0878 0.00141082 -0.00266269 0.000783861
177 1 -2.40851 2.94971 19.639 -0.00619534 0.00181239 -0.00553322
194 1 -0.31062 4.23846 19.5162 0.00675289 -0.00662294 -0.00838022
166 1 -3.07938 1.74448 19.7015 0.0062735 -0.00507491 -0.000834201
176 1 -2.32055 0.550749 19.342 0.00400817 0.00303798 -0.0035175
193 1 -0.98875 2.97359 19.3427 -0.0153851 0.0031228 -0.00620512
191 1 -0.987102 0.551332 18.911 0.00707088 -0.000883981 -0.00259176
192 1 -0.272376 1.78903 19.1676 -0.00268431 -0.00635216 0.0067394
218 1 1.78826 5.433 19.5966 -0.00374733 0.000550028 -0.00655624
235 1 3.21949 5.47912 19.7017 -0.00565981 -0.00334869 -0.00118991
247 1 5.40201 4.23278 19.6582 0.00271268 0.000226942 -0.00865559
257 1 6.19912 3.04059 19.8088 0.00433421 0.0111942 -0.000807402
258 1 6.09063 5.51618 19.7263 -0.00649798 0.00166826 0.000503942
234 1 3.99556 4.2622 19.615 0.000819831 -0.00343207 -0.00768152
256 1 6.26786 0.66167 20.1614 0.00762224 -0.00365489 -0.00572526
246 1 5.50796 1.83777 20.0482 0.000476722 -0.00464188 -0.0102471
233 1 3.30147 2.99044 19.5831 -0.000849269 -0.00081723 -0.00713215
231 1 3.30279 0.61983 19.6606 0.00497586 0.00423657 0.000675994
232 1 4.07362 1.80965 19.7683 -0.0018013 0.00180967 0.0118311
207 1 1.09556 4.16477 19.5222 -0.00920765 0.00431905 0.00265508
217 1 1.87172 2.99931 19.3178 0.000382055 0.0133694 -0.00176974
206 1 1.20773 1.80281 19.0855 0.0109555 0.00400415 -0.00455602
216 1 1.91857 0.574475 19.2073 -0.000709494 -0.000285585 0.0123935
273 1 7.60101 3.0989 19.8541 -0.00349775 0.00707729 -0.00362888
271 1 7.7416 0.600512 20.0986 -0.000127209 0.0036276 -0.00352249
275 1 7.50757 5.47279 19.5988 -0.00102915 -0.00100183 -0.00437986
272 1 8.34109 1.84277 19.9022 0.00892734 -0.0109323 -0.0164087
274 1 8.27334 4.31286 19.5604 -0.00336068 0.00582934 0.00713647
286 1 9.74661 1.83789 19.8073 0.00255757 0.00358087 -0.00783898
287 1 9.72336 4.33102 19.7225 0.00349033 -0.000765189 -0.00144764
296 1 10.5265 0.625529 19.9393 0.00172991 -0.00252762 -0.00593932
297 1 10.465 3.10786 19.8422 0.00816554 0.00417776 -0.00493692
298 1 10.4892 5.55178 19.8395 0.00281629 0.00234714 0.00299422
311 1 11.9034 0.592385 19.9999 0 0 0
312 1 12.6457 1.82255 19.9999 0 0 0
313 1 11.9038 3.05326 19.9999 0 0 0
314 1 12.6466 4.28301 19.9999 0 0 0
315 1 11.9041 5.51379 19.9999 0 0 0
326 1 14.0439 1.82305 19.9999 0 0 0
327 1 14.0468 4.28589 19.9999 0 0 0
76 1 -13.0678 6.73987 19.9999 0 0 0
77 1 -13.743 7.99662 19.9999 0 0 0
78 1 -13.076 9.22053 19.9999 0 0 0
79 1 -13.6781 10.6114 19.9999 0 0 0
80 1 -13.0646 11.9529 19.9999 0 0 0
88 1 -11.5395 6.7281 19.9999 0 0 0
89 1 -11.5535 9.18478 19.9999 0 0 0
90 1 -11.7099 11.6077 19.9999 0 0 0
99 1 -10.8109 7.96698 20.0022 0.00146385 0.00192668 -0.00168333
100 1 -10.9027 10.4758 19.9999 0 0 0
116 1 -8.64853 6.75054 20.0329 0.000206341 -0.00800358 0.00134341
117 1 -9.33378 8.01258 20.065 -0.000186455 0.00631548 7.05656e-05
118 1 -8.60987 9.25318 20.1227 -0.00616438 -0.00244236 -0.008371
119 1 -9.37207 10.4804 19.9999 0 0 0
120 1 -8.62688 11.6228 19.9999 0 0 0
130 1 -7.38724 11.6024 19.9999 0 0 0
129 1 -7.193 9.15567 20.0809 -0.00748919 -0.00275841 0.000515573
128 1 -7.2013 6.73079 20.0444 -0.0176286 0.000561998 -0.000928002
139 1 -6.47245 7.9251 20.1426 -0.0136101 -0.00012265 -0.00127599
140 1 -6.60892 10.469 19.9999 0 0 0
156 1 -4.3384 6.60149 19.975 -0.00277839 0.00744515 0.00140118
157 1 -5.03245 7.92261 20.003 -0.00571756 0.000303629 -0.00169675
158 1 -4.4279 9.13435 19.8768 0.00371077 -0.0063687 0.00627088
159 1 -5.14663 10.4689 19.9999 0 0 0
160 1 -4.36691 11.6023 19.9999 0 0 0
168 1 -2.96426 6.57658 19.9474 -0.0103086 -0.00786346 -0.00407252
169 1 -3.01591 9.12689 20 0.00212201 0.00137159 -0.00506333
170 1 -3.12269 11.6018 19.9999 0 0 0
179 1 -2.34837 7.86099 20.0794 0.00237051 -0.000437474 0.00628726
180 1 -2.34103 10.4689 19.9999 0 0 0
196 1 -0.204268 6.67326 20.1225 0.00680444 -0.00498732 -0.00311868
197 1 -0.947257 7.92661 20.0758 0.0019217 -0.00173758 -0.0103255
198 1 -0.265565 9.14019 19.9719 0.000223962 0.00653085 0.00154462
199 1 -0.876963 10.4688 19.9999 0 0 0
200 1 -0.0953724 11.6018 19.9999 0 0 0
208 1 1.20495 6.62073 20.0424 -0.0041453 -0.000579802 -0.0114295
209 1 1.14921 9.15825 19.9355 0.00432058 0.00268046 0.0054299
210 1 1.14924 11.6018 19.9999 0 0 0
219 1 1.84744 7.97302 19.9923 0.00590544 -0.00144943 -0.0038955
220 1 1.93091 10.4688 19.9999 0 0 0
236 1 3.8999 6.70213 19.9372 -0.00968107 -0.00838464 -0.00997806
237 1 3.30838 8.00318 19.9409 -0.00166498 0.0036353 0.00119372
238 1 4.06431 9.2072 19.9301 0.0116322 0.000799142 0.0039909
239 1 3.39506 10.4687 19.9999 0 0 0
240 1 4.17656 11.6018 19.9999 0 0 0
248 1 5.35606 6.71462 19.9182 0.000574212 -0.00384609 -0.00603269
249 1 5.42723 9.18076 19.8606 0.00247618 -0.0136827 -0.000607667
250 1 5.4212 11.6017 19.9999 0 0 0
259 1 6.12524 7.94685 19.9058 -0.0153445 0.00236737 -0.00425799
260 1 6.20335 10.4685 19.9999 0 0 0
277 1 7.60187 7.92945 19.9361 0.00217424 0.000289847 0.0043264
276 1 8.26701 6.71534 19.6683 -0.0021553 0.0067188 -0.00354911
278 1 8.28231 9.18005 19.9434 -0.00476034 -0.00365463 -0.00459998
279 1 7.66711 10.4687 19.9999 0 0 0
280 1 8.44529 11.6024 19.9999 0 0 0
288 1 9.74619 6.74789 19.7148 -0.00365951 0.00772754 -0.00267953
289 1 9.71845 9.19937 19.9018 -0.00166344 -0.00336855 0.00423552
290 1 9.6873 11.6101 19.9999 0 0 0
299 1 10.4982 7.98796 19.9512 0.00808945 -0.00352462 0.00318936
300 1 10.4752 10.4755 19.9999 0 0 0
316 1 12.6473 6.74288 19.9999 0 0 0
317 1 11.9051 7.97805 19.9999 0 0 0
318 1 12.6583 9.19198 19.9999 0 0 0
319 1 11.9246 10.4937 19.9999 0 0 0
320 1 12.7709 11.5297 19.9999 0 0 0
328 1 14.0456 6.75188 19.9999 0 0 0
329 1 14.0237 9.17042 19.9999 0 0 0
330 1 13.9415 11.792 19.9999 0 0 0
