ITEM: TIMESTEP
20500
ITEM: NUMBER OF ATOMS
330
ITEM: BOX BOUNDS pp pp pp
-1.4715758017245314e+01 1.5057610017245315e+01
-1.2710055654020760e+01 1.2664508654020761e+01
-5.0001035148846022e+01 1.0000103514884636e+02
ITEM: ATOMS id type x y z vx vy vz
8 1 0.0366107 -1.24243 10.0116 -0.00210755 -0.00286062 -0.0200215
28 1 -0.757462 -2.10505 10.8122 0.00324357 -0.000617273 -0.0181043
42 1 -1.84503 -0.147597 10.8831 0.00144659 -0.00539778 -0.0181951
44 1 -1.943 -1.50958 11.3905 0.00457315 0.000182581 -0.0168159
52 1 -0.0987786 -2.98617 11.7409 0.00540087 -0.00800991 -0.0192653
20 1 -2.53965 -1.82151 12.6523 0.00238234 -0.000339464 -0.0136834
36 1 -0.587675 -3.28308 13.0035 0.00237189 -0.00493262 -0.0175747
4 1 -3.01454 -0.789319 13.4935 0.00244454 0.00337805 -0.0208692
60 1 -1.79627 -2.73604 13.4824 0.00512596 0.000361228 -0.0195211
19 1 -2.58232 -1.04502 14.8475 -0.00178172 -0.00319167 -0.0213097
58 1 -1.86183 -2.26943 14.8629 0.00431088 -0.00171181 -0.0232566
7 1 1.4699 -1.26783 10.0031 0.00739859 0.000320514 -0.0147559
26 1 2.09357 -2.09185 11.0028 -0.00396324 -0.000175009 -0.0170493
38 1 3.30939 -0.157849 10.9535 0.00472693 0.00135372 -0.0137197
40 1 3.25915 -1.4505 11.5333 -0.00214636 0.000839524 -0.0182616
50 1 1.3344 -2.99267 11.8027 -0.00108641 -0.00258381 -0.0173344
16 1 3.58335 -1.73368 12.8363 0.00656647 -0.00484042 -0.0198007
35 1 1.69004 -3.34188 13.1207 -0.000833346 0.00243903 -0.017928
12 1 0.491692 -3.49391 13.8723 0.00099177 0.00750244 -0.0153608
2 1 4.04344 -0.754061 13.7119 -0.00245371 0.00423983 -0.0125101
59 1 2.86075 -2.69969 13.6641 0.00374715 -0.00187029 -0.0183555
11 1 0.504783 -3.07465 15.1963 0.00399834 0.00305385 -0.030295
15 1 3.63726 -0.999168 15.0802 0.00358196 -0.00559219 -0.021803
57 1 2.89323 -2.21777 15.0101 -0.00115616 -0.00105722 -0.0230622
27 1 -0.680362 -0.00786629 10.1154 0.0078612 -0.000520091 -0.0174674
32 1 -0.44676 2.14334 11.1172 0.00207992 0.000839789 -0.0225741
51 1 0.0479459 1.13303 10.2259 -0.00549343 0.00321592 -0.024033
18 1 -2.34596 0.82949 11.8009 0.000445883 -0.00169968 -0.019104
56 1 -1.65882 2.01574 11.8661 0.00155248 0.00455228 -0.0185963
3 1 -3.00762 0.591336 13.0653 0.00694284 0.0034215 -0.0197192
54 1 -1.80581 2.60093 13.2 -0.00248105 -0.00173404 -0.0162029
30 1 -0.597898 3.16019 13.6968 0.0020104 0.00419567 -0.0159075
17 1 -2.62862 1.66539 13.9684 -0.0018765 0.00150648 -0.0189637
41 1 -2.20847 1.37688 15.3098 0.00485282 0.000431125 -0.0206213
47 1 -0.221636 2.84778 15.0354 -0.00377928 0.00622181 -0.0174126
25 1 2.21689 -0.0227228 10.022 -0.00468064 -0.00479122 -0.0159942
10 1 0.68237 2.81553 11.6519 0.00467784 -0.00747091 -0.0198733
31 1 1.83931 2.20645 11.0992 0.00473906 0.00159667 -0.0129708
49 1 1.47838 1.2278 10.127 -0.00392394 0.0015298 -0.0236729
14 1 3.63829 0.843542 11.9439 0.00186124 -0.00092636 -0.0159629
55 1 2.92034 2.04868 11.9621 0.00430761 0.00165721 -0.0141785
9 1 0.617547 3.34376 12.8954 0.00577884 0.00400478 -0.0203839
1 1 4.12499 0.58899 13.289 -0.00174977 0.00137392 -0.0162562
53 1 2.89775 2.59656 13.3293 -0.00245232 0.00651325 -0.00732794
29 1 1.67989 3.17169 13.773 -0.000517182 0.0045786 -0.0150101
13 1 3.61003 1.63857 14.1373 0.00743277 7.49881e-05 -0.023181
37 1 3.12982 1.36435 15.4447 0.0030545 0.00183314 -0.00954367
45 1 1.18015 2.87229 15.0728 0.00971755 0.0022399 -0.0154209
61 1 -13.6674 -11.9461 19.9999 0 0 0
62 1 -13.1228 -10.6724 19.9999 0 0 0
63 1 -13.7825 -9.34696 19.9999 0 0 0
64 1 -13.0772 -8.00396 19.9999 0 0 0
65 1 -13.7542 -6.79742 19.9999 0 0 0
81 1 -11.507 -10.5408 19.9999 0 0 0
82 1 -11.5331 -8.01671 19.9999 0 0 0
91 1 -10.7591 -11.6424 19.9999 0 0 0
92 1 -10.8582 -9.24487 20.0844 -0.00735117 -0.00285772 -0.00308892
93 1 -10.8263 -6.77947 20.0212 0.00145421 -0.00961275 -0.0105734
101 1 -9.52473 -11.6468 19.9999 0 0 0
102 1 -8.74136 -10.5124 19.9999 0 0 0
103 1 -9.39835 -9.23636 20.0149 0.00589396 0.00506813 0.00438449
104 1 -8.74035 -7.97697 19.8483 0.00678877 -0.00151756 0.00424736
105 1 -9.43349 -6.77075 19.7868 -0.00118129 0.00263151 -0.00777801
121 1 -7.27873 -10.5146 19.9999 0 0 0
122 1 -7.31715 -7.91659 20.0725 0.00417657 -0.00323515 -0.00112829
131 1 -6.50232 -11.6488 19.9999 0 0 0
132 1 -6.61229 -9.20047 20.125 -0.00694421 0.00438025 0.00688605
133 1 -6.59399 -6.69305 20.1924 0.00973172 0.00338873 0.0131919
141 1 -5.25854 -11.6473 19.9999 0 0 0
142 1 -4.47674 -10.5145 19.9999 0 0 0
143 1 -5.21214 -9.18274 20.0791 0.0134428 0.00587024 -0.00078279
144 1 -4.57128 -7.96199 20.2827 0.00453173 -0.000456051 0.0085929
145 1 -5.18002 -6.68096 20.3498 -0.000521828 -0.00595666 0.00907408
161 1 -3.01281 -10.5144 19.9999 0 0 0
162 1 -3.09329 -8.01802 20.236 -0.00302031 0.000862498 0.00312516
171 1 -2.23133 -11.6474 19.9999 0 0 0
172 1 -2.34944 -9.17985 20.0452 -0.0100297 0.000758708 0.00776251
173 1 -2.30988 -6.81298 20.3639 -0.00725921 0.00253919 0.00772979
181 1 -0.986751 -11.6474 19.9999 0 0 0
182 1 -0.205108 -10.5143 19.9999 0 0 0
183 1 -0.923487 -9.1961 19.9801 -0.0132037 0.00236394 0.00211218
184 1 -0.158489 -8.01433 19.9384 -0.0174063 0.00879203 -0.000343315
185 1 -0.864682 -6.847 20.2548 -0.00186977 -0.000322357 -0.00589592
201 1 1.25901 -10.5143 19.9999 0 0 0
202 1 1.28793 -7.98456 19.7101 0.00366689 0.00782557 0.00673798
211 1 2.0406 -11.6474 19.9999 0 0 0
212 1 1.97879 -9.22616 19.8345 0.00357189 -0.0027549 0.00012804
213 1 2.04892 -6.82122 20.0557 0.00706603 -0.00404269 -0.006108
221 1 3.28523 -11.6473 19.9999 0 0 0
222 1 4.06705 -10.5143 19.9999 0 0 0
223 1 3.38832 -9.27959 19.787 -0.00134206 0.00115744 -0.00401889
224 1 4.13362 -8.08134 19.8267 -0.0013271 -0.00713186 0.00564107
225 1 3.44753 -6.8419 20.0086 0.0109342 0.00531221 0.00507815
241 1 5.53108 -10.5143 19.9999 0 0 0
242 1 5.61591 -8.06241 19.6893 0.00385728 -0.00140724 0.00146362
251 1 6.31174 -11.6474 19.9999 0 0 0
252 1 6.31398 -9.32057 19.671 0.00189835 0.00181832 0.000504492
253 1 6.3547 -6.8254 19.6154 0.00625335 -0.00187018 0.00624592
261 1 7.55524 -11.6498 19.9999 0 0 0
263 1 7.70148 -9.28438 19.6643 -0.00182155 -0.00670239 0.00111756
265 1 7.75114 -6.80875 19.4705 0.0026494 0.00476427 0.0110359
262 1 8.33779 -10.5154 19.9999 0 0 0
264 1 8.44673 -8.05716 19.5808 0.00960988 0.0106715 0.00076661
281 1 9.79556 -10.5245 19.9999 0 0 0
282 1 9.83339 -8.02291 19.763 0.0127748 0.00349004 0.0082284
291 1 10.5816 -11.6418 19.9999 0 0 0
292 1 10.5166 -9.26454 20.0045 0.00254551 -0.000629222 0.00923898
293 1 10.5389 -6.76378 19.7103 0.00247212 0.0066905 0.0041799
301 1 11.8019 -11.7522 19.9999 0 0 0
302 1 12.7161 -10.5156 19.9999 0 0 0
303 1 11.8934 -9.22642 19.9999 0 0 0
304 1 12.655 -8.00627 19.9999 0 0 0
305 1 11.8992 -6.77596 19.9999 0 0 0
321 1 14.087 -10.4984 19.9999 0 0 0
322 1 14.0714 -8.01298 19.9999 0 0 0
66 1 -13.0658 -5.54976 19.9999 0 0 0
67 1 -13.7179 -4.30197 19.9999 0 0 0
68 1 -13.0406 -3.0891 19.9999 0 0 0
69 1 -13.6883 -1.86008 19.9999 0 0 0
70 1 -13.0424 -0.636745 19.9999 0 0 0
83 1 -11.5387 -5.54743 19.9999 0 0 0
84 1 -11.5566 -3.09089 19.9999 0 0 0
85 1 -11.5625 -0.637245 19.9999 0 0 0
94 1 -10.8563 -4.33395 19.8965 -0.00629508 0.00528599 -0.00312217
95 1 -10.9289 -1.8579 20.1558 -0.000349299 0.00154219 -0.00791592
106 1 -8.66823 -5.5404 19.7678 0.0164694 0.00187556 -0.00234147
107 1 -9.37768 -4.341 19.9244 0.00746507 0.00528421 -0.000554088
108 1 -8.74356 -3.11102 20.1712 -0.00315086 0.00969729 -0.0017364
109 1 -9.48187 -1.91489 20.3948 0.0027202 0.00350832 -0.00597128
110 1 -8.84652 -0.649876 20.7021 -0.00103465 0.0041626 0.00232112
123 1 -7.24422 -5.48845 20.0232 0.0028749 0.00217965 0.00153537
125 1 -7.4212 -0.643976 20.9007 0.000842718 0.00045454 0.00277523
124 1 -7.30464 -3.07302 20.4279 -0.0111224 -0.00108443 0.00239862
34 1 -0.701635 -2.41721 15.6959 -0.00139235 -0.000194444 -0.0172503
48 1 -0.271068 -1.34133 16.4916 0.00615062 0.0016247 -0.0176323
186 1 -0.103743 -5.56583 20.3194 0.00720097 0.00345802 0.00214708
134 1 -6.587 -4.29323 20.2341 0.000698282 0.00741838 0.0144569
163 1 -2.96382 -5.53888 20.5005 0.00455771 0.000517025 0.00238487
24 1 -1.07016 -0.141871 16.5383 0.00241111 -0.00181672 -0.0192845
135 1 -6.65419 -1.83591 20.8016 -0.00373427 0.00643226 0.0128086
146 1 -4.37643 -5.45433 20.5126 -0.00230357 -0.00136739 0.002404
147 1 -5.14864 -4.26426 20.3667 0.0023155 0.00269277 -0.000676541
148 1 -4.40715 -3.06635 20.3332 -0.00759041 -0.00241815 0.00491823
149 1 -5.23283 -1.86869 20.5505 -0.00585439 0.00565222 0.0101604
164 1 -2.96945 -3.10551 20.249 -0.00145651 0.000992314 -0.00661268
174 1 -2.19211 -4.30138 20.4235 -0.00448865 -0.00232315 0.00923444
150 1 -4.56993 -0.625808 20.4302 0.00850001 -0.00619816 0.0106205
187 1 -0.756051 -4.29521 20.4376 -0.00441917 -0.00591695 -0.00442281
165 1 -3.15376 -0.650003 20.0458 -0.00325402 -0.00265381 0.017417
175 1 -2.29969 -1.82449 19.9892 -0.0115319 -0.00247383 0.000632537
188 1 -0.0617761 -3.04974 20.2247 -0.00429486 0.000226592 -0.00211994
189 1 -0.820548 -1.84403 19.9963 -0.00682837 -0.00471392 -0.0024883
190 1 -0.165876 -0.602582 19.6877 0.00725195 0.00417113 -0.0153194
33 1 1.66546 -2.41961 15.7765 0.00477146 0.0047772 -0.0209094
46 1 1.14748 -1.35944 16.5573 0.00124088 0.000113004 -0.0184275
203 1 1.31603 -5.58611 20.1722 0.0138008 -0.00686877 -0.0129072
226 1 4.19528 -5.60454 20.0653 -0.0022708 0.000822067 -0.00143999
243 1 5.62652 -5.62553 19.8339 0.00448494 0.00177045 0.00478444
254 1 6.26648 -4.3369 19.8619 -0.0106904 0.00156616 -0.00689747
255 1 6.25411 -1.89521 20.2634 -0.00164725 -0.00206002 -0.00140222
22 1 1.91616 -0.142267 16.6807 0.0018132 0.00558099 -0.0164731
227 1 3.46239 -4.36902 20.1222 -0.00426753 0.00727331 -0.00451266
244 1 5.5896 -3.15553 20.0025 0.00254931 0.0119901 -0.00965286
214 1 2.06635 -4.3721 20.1566 0.00445643 0.00529095 -0.00105565
228 1 4.16898 -3.11633 20.0964 -0.00498982 0.00577999 -0.00801518
245 1 5.60689 -0.648398 20.3206 -0.005776 -0.00534413 0.00464758
229 1 3.45499 -1.87648 20.135 0.0029357 0.00426659 -0.0125375
230 1 4.16187 -0.614494 20.1566 -0.000781558 0.00686035 -0.00820646
204 1 1.38779 -3.08807 20.1561 -0.00790919 0.00034902 -0.00305985
215 1 2.02119 -1.84151 19.9566 -0.000149993 -0.0101624 -0.00741854
205 1 1.30252 -0.641962 19.7492 -0.00529696 -0.00833433 -0.0168608
269 1 7.65904 -1.89948 20.3382 0.00486515 0.00319378 0.00694865
267 1 7.68347 -4.32988 19.7517 -0.00909105 -0.00525859 -0.00583668
266 1 8.40773 -5.55108 19.6109 -0.0097009 0.00801382 0.000162758
268 1 8.36349 -3.1139 20.0971 -0.00689025 0.00452374 -0.000427507
270 1 8.38563 -0.67008 20.4741 -0.00250178 -0.00317858 0.00560617
283 1 9.79089 -5.52987 19.7162 0.00402309 0.00346059 0.000677857
284 1 9.77237 -3.12132 20.0418 -0.00112524 0.0148149 0.00048837
285 1 9.81749 -0.647661 20.4287 0.000285814 0.00104046 0.00124519
294 1 10.5303 -4.3453 19.8977 0.000702362 0.00580351 -0.00354005
295 1 10.4872 -1.9381 20.2142 -0.00274799 0.00759286 -0.000437098
306 1 12.6496 -5.55341 19.9999 0 0 0
307 1 11.9041 -4.32686 19.9999 0 0 0
308 1 12.647 -3.09734 19.9999 0 0 0
309 1 11.9037 -1.86828 19.9999 0 0 0
310 1 12.6457 -0.637745 19.9999 0 0 0
323 1 14.0539 -5.56516 19.9999 0 0 0
324 1 14.0472 -3.10129 19.9999 0 0 0
325 1 14.0438 -0.638188 19.9999 0 0 0
71 1 -13.6826 0.591886 19.9999 0 0 0
72 1 -13.0424 1.82079 19.9999 0 0 0
73 1 -13.6895 3.04359 19.9999 0 0 0
74 1 -13.0413 4.27397 19.9999 0 0 0
75 1 -13.7195 5.48914 19.9999 0 0 0
86 1 -11.5623 1.82169 19.9999 0 0 0
87 1 -11.5564 4.27485 19.9999 0 0 0
96 1 -10.8586 0.594024 20.2031 0.0113994 0.00685992 -0.00586434
97 1 -10.8899 3.07964 19.9018 0.000617796 -0.00606179 0.00026923
98 1 -10.8376 5.52861 19.8682 -0.00219647 0.00243233 -0.00228967
111 1 -9.49783 0.610909 20.5531 -0.0021498 0.0049168 -0.016111
112 1 -8.84448 1.91264 20.548 0.00489789 -0.00356938 0.0068627
113 1 -9.48627 3.09292 20.1356 0.00578893 -0.00181335 -0.00458594
114 1 -8.7102 4.275 19.8085 -0.0111896 -0.00867765 0.00456075
115 1 -9.41712 5.50297 19.7419 0.00335719 0.00623223 -0.00143514
126 1 -7.41666 1.93076 20.7322 -0.00427739 -0.000955095 -0.00239736
127 1 -7.27427 4.27249 20.024 -0.00854805 -0.000371508 -0.00515971
6 1 -0.285893 1.03756 16.5966 0.000852224 -0.0055043 -0.0203764
23 1 -1.02441 1.972 15.8015 0.00824716 0.00263041 -0.0277116
43 1 -2.28149 0.0072428 15.7452 0.00202 -0.00441946 -0.0200027
138 1 -6.47925 5.47782 19.9603 -0.00293437 -0.00469272 0.00435348
195 1 -0.885138 5.4156 20.2181 -0.00573417 0.00696122 0.00187472
155 1 -5.07465 5.40617 20.2126 -0.0059521 -0.00331301 0.00626321
178 1 -2.31955 5.43922 20.2026 -0.00192099 -0.00050052 0.00864668
137 1 -6.63534 3.09195 20.4242 -0.00716703 -0.00374129 0.0117167
153 1 -5.22504 3.04122 20.29 -0.0132142 0.00655557 0.00704967
154 1 -4.3949 4.15959 20.3056 -0.0116782 0.00413802 0.00707589
136 1 -6.71417 0.617454 20.8618 0.000779291 -0.0132045 0.00671786
151 1 -5.31468 0.64523 20.5483 0.00118033 -0.00560063 0.0145107
167 1 -2.96613 4.17402 20.2028 -0.000274488 -0.00684388 0.00825188
152 1 -4.49401 1.77616 20.3103 -0.00255201 0.00432679 0.0192855
177 1 -2.25601 2.97308 20.0348 -0.00369735 0.00417829 -0.00435555
194 1 -0.119118 4.19181 20.1965 -0.00218479 0.012057 0.00375395
166 1 -3.11273 1.77859 20.067 -0.0113632 -0.0046756 -0.00121946
176 1 -2.40725 0.550299 19.8561 -0.00949792 0.00113976 -0.00957894
193 1 -0.850786 2.96943 20.0485 -0.00998 -0.00192275 -0.00423983
191 1 -0.964434 0.563445 19.657 -0.00412119 -0.00568462 -0.0107713
192 1 -0.166242 1.74345 19.7843 -0.00779646 0.00509579 -0.00802067
39 1 3.11938 0.0232546 15.9511 -0.000990661 -0.00581446 -0.0187288
5 1 1.17188 1.06997 16.7226 0.00967686 -0.00794579 -0.0119208
21 1 1.94041 1.99632 15.9428 0.000232057 -0.00396065 -0.0250621
218 1 2.02919 5.489 19.9011 0.00421447 -0.00793585 0.0010965
235 1 3.50331 5.55439 19.779 0.00908082 -0.00529964 -0.00137126
247 1 5.58474 4.2656 19.6592 0.00542783 -0.01073 -0.00311736
257 1 6.28061 3.09229 19.9211 0.000572573 -0.00684809 -0.00217049
258 1 6.28549 5.53454 19.5873 -0.00606201 -0.00190769 -0.00594083
234 1 4.17316 4.30455 19.7477 0.00293602 -0.0046288 -0.00584764
256 1 6.23862 0.644747 20.5255 -0.0123075 -0.000178659 0.00599494
246 1 5.58259 1.86435 20.1968 -0.00460538 0.00119971 0.00109061
233 1 3.47161 3.05169 19.7537 -0.00546114 0.000840479 -0.00831854
231 1 3.43181 0.612349 19.9831 -0.00613984 -0.00728135 -0.0184405
232 1 4.17659 1.82651 19.9318 -0.0025867 0.00561476 -0.00491902
207 1 1.3265 4.26855 20.0854 0.00830201 -0.00293261 -0.0104536
217 1 2.02656 3.05201 19.8393 0.00390908 0.0069945 -0.00517989
206 1 1.26391 1.77991 19.7987 -0.000414192 -0.0017942 -0.0146083
216 1 2.02859 0.587355 19.7225 0.000766886 -0.00206417 -0.0131174
273 1 7.66445 3.06715 20.1066 -0.000967934 -0.00106873 -0.00422573
271 1 7.66526 0.622797 20.5574 -0.00600441 -0.00280591 0.0137154
275 1 7.69408 5.56157 19.6327 -0.00195943 -0.00404664 0.00250826
272 1 8.37849 1.85605 20.3924 -0.00108536 0.00460109 0.00167711
274 1 8.35154 4.2889 19.9354 0.000339739 -0.00824318 -0.0108504
286 1 9.75626 1.85046 20.2414 0.0121142 0.00536674 0.000875546
287 1 9.75066 4.29335 19.8493 -0.00972384 -0.0079469 -0.00332131
296 1 10.4889 0.610355 20.2339 0.00359941 -0.00114459 -0.00494359
297 1 10.4885 3.08172 20.0066 0.00443712 -0.00977954 -0.0010398
298 1 10.522 5.50338 19.8122 0.00757906 -0.0106524 0.0066567
311 1 11.9034 0.592385 19.9999 0 0 0
312 1 12.6457 1.82255 19.9999 0 0 0
313 1 11.9038 3.05326 19.9999 0 0 0
314 1 12.6466 4.28301 19.9999 0 0 0
315 1 11.9041 5.51379 19.9999 0 0 0
326 1 14.0439 1.82305 19.9999 0 0 0
327 1 14.0468 4.28589 19.9999 0 0 0
76 1 -13.0678 6.73987 19.9999 0 0 0
77 1 -13.743 7.99662 19.9999 0 0 0
78 1 -13.076 9.22053 19.9999 0 0 0
79 1 -13.6781 10.6114 19.9999 0 0 0
80 1 -13.0646 11.9529 19.9999 0 0 0
88 1 -11.5395 6.7281 19.9999 0 0 0
89 1 -11.5535 9.18478 19.9999 0 0 0
90 1 -11.7099 11.6077 19.9999 0 0 0
99 1 -10.8785 7.97719 19.9943 -0.00776259 -0.00162195 -0.00543229
100 1 -10.9027 10.4758 19.9999 0 0 0
116 1 -8.68066 6.68113 19.8847 0.0135499 -0.000335358 0.00113212
117 1 -9.42169 7.91142 19.9881 0.00133772 0.00182896 -0.00691413
118 1 -8.74562 9.18812 19.9447 -0.0102973 -0.000647368 0.00331733
119 1 -9.37207 10.4804 19.9999 0 0 0
120 1 -8.62688 11.6228 19.9999 0 0 0
130 1 -7.38724 11.6024 19.9999 0 0 0
129 1 -7.34005 9.20048 19.9551 0.00375059 -0.00300746 0.00592607
128 1 -7.28333 6.71261 19.9669 0.00297157 -0.00640909 0.00785619
139 1 -6.65438 7.97464 20.0627 0.00016692 -0.0032463 0.00779528
140 1 -6.60892 10.469 19.9999 0 0 0
156 1 -4.46878 6.69189 20.3229 -0.00300089 -0.00116496 0.0115528
157 1 -5.23637 7.90761 20.1679 0.00949565 0.00305533 0.00686578
158 1 -4.50344 9.15168 20.145 -0.00798298 -0.0078313 0.00977237
159 1 -5.14663 10.4689 19.9999 0 0 0
160 1 -4.36691 11.6023 19.9999 0 0 0
168 1 -3.03139 6.68394 20.2531 0.000117022 0.00354433 0.0033149
169 1 -3.08951 9.15523 20.0935 -0.00529825 -0.00407485 0.00492378
170 1 -3.12269 11.6018 19.9999 0 0 0
179 1 -2.39235 7.94532 20.1247 -6.54632e-05 -0.000840876 0.0104448
180 1 -2.34103 10.4689 19.9999 0 0 0
196 1 -0.222312 6.65703 20.0833 -0.000579745 0.00974085 -0.00962897
197 1 -0.902812 7.92235 20.0089 -0.00083754 0.00578185 -0.00720295
198 1 -0.146524 9.11664 19.9596 -0.000335484 0.000546645 0.00310743
199 1 -0.876963 10.4688 19.9999 0 0 0
200 1 -0.0953724 11.6018 19.9999 0 0 0
208 1 1.22777 6.6763 19.8506 0.00616136 0.0108126 -0.00594605
209 1 1.28085 9.10875 19.813 0.000340084 -0.00491046 -0.00367045
210 1 1.14924 11.6018 19.9999 0 0 0
219 1 1.97208 7.8813 19.7621 -0.000155157 -0.00348599 -0.00172388
220 1 1.93091 10.4688 19.9999 0 0 0
236 1 4.20639 6.75455 19.692 0.00340274 -0.00460497 0.00212856
237 1 3.4081 7.96846 19.7556 -0.00598293 -0.00741316 0.00315127
238 1 4.12865 9.19056 19.7672 -0.00051609 -0.00937591 0.00108725
239 1 3.39506 10.4687 19.9999 0 0 0
240 1 4.17656 11.6018 19.9999 0 0 0
248 1 5.67474 6.80193 19.6935 0.00330058 0.000955724 0.00321593
249 1 5.55007 9.19962 19.7762 0.00720407 -0.00316414 0.00220743
250 1 5.4212 11.6017 19.9999 0 0 0
259 1 6.35052 8.05337 19.6849 0.00235051 -0.00677609 0.0103786
260 1 6.20335 10.4685 19.9999 0 0 0
277 1 7.73599 8.0688 19.5524 0.00726304 -0.00343802 0.00395127
276 1 8.44631 6.81877 19.5504 0.00108414 -0.000392369 0.00858985
278 1 8.44128 9.27957 19.6704 0.00613073 0.00231951 -0.00483729
279 1 7.66711 10.4687 19.9999 0 0 0
280 1 8.44529 11.6024 19.9999 0 0 0
288 1 9.83871 6.72256 19.6635 0.0072934 -0.00627805 0.00545911
289 1 9.82476 9.17889 19.8263 0.00641351 0.00212677 0.00169501
290 1 9.6873 11.6101 19.9999 0 0 0
299 1 10.5393 7.95441 19.827 0.00351041 -0.00257266 -0.00531931
300 1 10.4752 10.4755 19.9999 0 0 0
316 1 12.6473 6.74288 19.9999 0 0 0
317 1 11.9051 7.97805 19.9999 0 0 0
318 1 12.6583 9.19198 19.9999 0 0 0
319 1 11.9246 10.4937 19.9999 0 0 0
320 1 12.7709 11.5297 19.9999 0 0 0
328 1 14.0456 6.75188 19.9999 0 0 0
329 1 14.0237 9.17042 19.9999 0 0 0
330 1 13.9415 11.792 19.9999 0 0 0
