ITEM: TIMESTEP
29700
ITEM: NUMBER OF ATOMS
330
ITEM: BOX BOUNDS pp pp pp
-1.4715758017245314e+01 1.5057610017245315e+01
-1.2710055654020760e+01 1.2664508654020761e+01
-5.0001035148846022e+01 1.0000103514884636e+02
ITEM: ATOMS id type x y z vx vy vz
44 1 -0.941221 -1.47388 3.00819 0.0031389 -0.00516187 -0.0147853
28 1 0.307787 -2.01491 2.53735 -0.00304496 0.000220747 -0.0190564
8 1 1.06868 -1.07442 1.74642 0.00450631 -0.00287709 -0.0163484
7 1 2.5323 -0.981414 1.90269 -0.000551816 0.0099294 -0.0237876
26 1 3.14987 -2.0072 2.68839 0.0038312 0.00142576 -0.0237918
38 1 4.39564 -0.0366911 2.91553 0.000777173 -0.000644096 -0.0157765
52 1 0.96002 -2.98018 3.33813 0.00389517 -0.00103364 -0.0184776
42 1 -0.804445 -0.0844989 2.58769 0.00548258 0.000987149 -0.0257022
18 1 -1.36319 0.930981 3.46191 0.00611649 -0.00143973 -0.0147756
27 1 0.374059 0.144782 1.80998 0.00809198 -0.00530409 -0.0184719
51 1 1.06326 1.34533 1.95816 -0.00357302 -0.00225674 -0.0133696
25 1 3.333 0.189413 2.03077 0.00790486 0.000203272 -0.0261803
49 1 2.53148 1.43076 1.99449 0.00665657 0.0101061 -0.0205088
32 1 0.586083 2.26118 2.88402 0.00578595 -0.000433588 -0.0177067
31 1 2.91979 2.35865 3.00309 0.00544055 -0.00177315 -0.0139953
20 1 -1.50456 -1.81335 4.26243 -0.00177477 -0.00202979 -0.0171698
4 1 -2.09544 -0.78467 5.09828 -0.00492325 0.0010074 -0.0193527
60 1 -0.827789 -2.71633 5.07458 0.00216228 -0.00200313 -0.0164581
19 1 -1.67952 -1.0844 6.44636 -0.00312685 -0.00248869 -0.0131627
58 1 -0.909013 -2.28088 6.40718 0.00493789 -0.00344095 -0.022315
34 1 0.179576 -2.52967 7.33337 -0.00695797 0.00116875 -0.022454
43 1 -1.28205 -0.105263 7.40212 0.000783157 0.0028622 -0.0112471
24 1 -0.207561 -0.337745 8.33926 -9.98075e-05 0.00296937 -0.0224831
36 1 0.402191 -3.30781 4.62726 0.00144535 0.00656404 -0.0171457
40 1 4.33269 -1.41932 3.27803 0.00679893 -0.00247215 -0.0170221
50 1 2.36068 -2.8917 3.42684 -0.0012691 0.0024014 -0.0214771
16 1 4.68873 -1.78981 4.63759 0.00358464 0.0054126 -0.0232157
35 1 2.69466 -3.3395 4.74775 0.00538845 0.00467688 -0.0126251
12 1 1.4963 -3.52315 5.5428 0.000104616 0.00562659 -0.0255727
2 1 4.99976 -0.768305 5.62124 0.00229912 0.000323157 -0.0161631
59 1 3.87823 -2.75776 5.37968 -0.00273096 0.00667034 -0.017144
11 1 1.37654 -3.15023 6.89483 0.00155104 -0.00197687 -0.0214989
15 1 4.41878 -1.13089 6.89815 0.00557248 -0.000183696 -0.0156509
57 1 3.69578 -2.34616 6.74706 0.00504084 -0.00115875 -0.0103375
33 1 2.49676 -2.56448 7.54292 0.00326338 -0.00283285 -0.0153344
48 1 0.550166 -1.57238 8.35778 0.00248876 0.00271287 -0.0179153
46 1 1.94678 -1.57374 8.42997 0.00566253 -0.00178877 -0.0187594
22 1 2.63002 -0.376004 8.58407 0.00514461 0.00135274 -0.0219557
39 1 3.85558 -0.123881 7.78228 0.0077759 -0.00491749 -0.0092983
56 1 -0.567725 2.09844 3.6152 0.00360645 -0.00850904 -0.0161341
3 1 -1.99444 0.604175 4.73671 0.00215666 -0.000199014 -0.0149936
54 1 -0.734033 2.55274 4.9751 -0.00439191 0.00173038 -0.0176603
17 1 -1.64398 1.66497 5.67148 -0.00443769 0.00335744 -0.0113978
41 1 -1.32408 1.27021 7.00406 0.00328017 -0.000203431 -0.0124622
23 1 -0.151867 1.85601 7.59305 -5.54884e-05 0.0100051 -0.0163234
30 1 0.284776 3.22516 5.62576 0.0036995 -0.00329834 -0.0198442
10 1 1.68803 2.88804 3.51576 -0.000664734 -0.00307882 -0.0189635
14 1 4.75489 0.942133 3.87875 0.000747197 -0.000902476 -0.0113527
55 1 3.95841 2.13819 3.97444 0.00342203 -0.00900205 -0.0118626
9 1 1.5251 3.32624 4.90688 0.00257077 -0.00618186 -0.0221468
1 1 5.01463 0.5946 5.22717 -0.00301566 -0.00393994 -0.0194385
53 1 3.84073 2.54927 5.32461 0.000528064 0.00249707 -0.0182028
29 1 2.61394 3.06011 5.80213 0.000795632 -0.00425272 -0.0128742
13 1 4.56801 1.59835 6.08747 0.0036525 -0.00177015 -0.0227355
47 1 0.624538 2.88431 6.94743 -0.00312449 0.000617891 -0.0214111
37 1 3.96201 1.21491 7.32615 0.00761135 0.00118935 -0.0141289
45 1 2.03153 2.78024 7.05987 0.00575679 0.00359498 -0.0176516
6 1 0.520537 0.864943 8.42136 -0.000882339 -0.00334172 -0.026454
21 1 2.69098 1.78325 7.77682 0.0046391 0.00137576 -0.0112631
5 1 1.93836 0.880533 8.55233 0.00142617 -0.00140143 -0.0204509
61 1 -13.6674 -11.9461 19.9999 0 0 0
62 1 -13.1228 -10.6724 19.9999 0 0 0
63 1 -13.7825 -9.34696 19.9999 0 0 0
64 1 -13.0772 -8.00396 19.9999 0 0 0
65 1 -13.7542 -6.79742 19.9999 0 0 0
81 1 -11.507 -10.5408 19.9999 0 0 0
82 1 -11.5331 -8.01671 19.9999 0 0 0
91 1 -10.7591 -11.6424 19.9999 0 0 0
92 1 -10.8426 -9.1931 19.862 -0.0114962 0.0025988 0.000922597
93 1 -10.8506 -6.76802 20.0305 0.00140138 -0.00115012 -0.000336627
101 1 -9.52473 -11.6468 19.9999 0 0 0
102 1 -8.74136 -10.5124 19.9999 0 0 0
103 1 -9.4496 -9.19064 19.8771 -0.00570795 -0.00140475 -3.51035e-05
104 1 -8.76507 -7.90266 19.9217 0.00367587 0.0066891 0.00858661
105 1 -9.44987 -6.70486 20.0395 -0.000893394 -0.00125851 -0.00216075
121 1 -7.27873 -10.5146 19.9999 0 0 0
122 1 -7.34181 -7.87694 20.0375 -0.00217012 0.00265399 0.00628994
131 1 -6.50232 -11.6488 19.9999 0 0 0
132 1 -6.5932 -9.14226 19.9683 0.00352545 -0.00165442 -0.00203695
133 1 -6.58143 -6.69669 19.9454 -0.00426827 -0.00694793 -0.00228449
141 1 -5.25854 -11.6473 19.9999 0 0 0
142 1 -4.47674 -10.5145 19.9999 0 0 0
143 1 -5.18963 -9.18007 19.8038 -0.00329536 0.00671749 0.00541439
144 1 -4.43578 -7.99469 19.5538 0.00727827 -0.0103573 2.71922e-05
145 1 -5.17177 -6.73154 19.6638 0.00450926 -0.0119802 -0.00207873
161 1 -3.01281 -10.5144 19.9999 0 0 0
162 1 -2.97194 -7.96839 19.6167 0.00810264 0.00162352 0.00274181
171 1 -2.23133 -11.6474 19.9999 0 0 0
172 1 -2.20633 -9.18034 19.7835 0.00610887 -0.00606141 0.0101678
173 1 -2.28103 -6.67689 19.5092 -0.00897511 -0.00369787 -0.000174515
181 1 -0.986751 -11.6474 19.9999 0 0 0
182 1 -0.205108 -10.5143 19.9999 0 0 0
183 1 -0.809123 -9.15046 20.0144 0.00260261 0.00128318 -0.00221655
184 1 -0.0909246 -7.85601 19.945 -0.00139533 0.00141104 0.0112184
185 1 -0.890038 -6.6687 19.7465 -0.00280988 0.00272291 0.00904011
201 1 1.25901 -10.5143 19.9999 0 0 0
202 1 1.34144 -7.93482 20.1061 -0.00774762 0.00341344 0.00626014
211 1 2.0406 -11.6474 19.9999 0 0 0
212 1 1.99367 -9.2339 20.0379 0.0019872 -0.00054215 4.47397e-05
213 1 2.08654 -6.7118 19.9697 -0.00678667 -0.00953733 0.00540677
221 1 3.28523 -11.6473 19.9999 0 0 0
222 1 4.06705 -10.5143 19.9999 0 0 0
223 1 3.41926 -9.21059 20.0716 -0.00914269 -0.00932193 0.00144636
224 1 4.17539 -8.04087 20.3829 -0.00715748 -0.0059121 -0.000331149
225 1 3.50364 -6.86866 20.1856 -0.00404649 -0.0129717 0.00931531
241 1 5.53108 -10.5143 19.9999 0 0 0
242 1 5.62721 -8.0088 20.5423 0.00232303 0.00419086 -0.00174947
251 1 6.31174 -11.6474 19.9999 0 0 0
252 1 6.26692 -9.25917 20.3638 0.00718913 0.00311921 0.00194028
253 1 6.32569 -6.78508 20.6806 -0.00773651 0.000172923 0.00268131
261 1 7.55524 -11.6498 19.9999 0 0 0
263 1 7.70644 -9.15364 20.2399 -0.00462234 -0.00544574 -0.0013489
265 1 7.79699 -6.67471 20.6475 -0.00958985 -0.00310983 -0.0070381
262 1 8.33779 -10.5154 19.9999 0 0 0
264 1 8.43726 -7.93422 20.371 0.00454538 -0.000162169 -0.00101154
281 1 9.79556 -10.5245 19.9999 0 0 0
282 1 9.83487 -8.01135 20.0183 0.00156058 0.00395279 0.00367715
291 1 10.5816 -11.6418 19.9999 0 0 0
292 1 10.5058 -9.20338 19.9979 0.00523732 -0.00473264 0.000628465
293 1 10.5485 -6.78203 20.1264 0.00051985 -0.00446911 -0.00722169
301 1 11.8019 -11.7522 19.9999 0 0 0
302 1 12.7161 -10.5156 19.9999 0 0 0
303 1 11.8934 -9.22642 19.9999 0 0 0
304 1 12.655 -8.00627 19.9999 0 0 0
305 1 11.8992 -6.77596 19.9999 0 0 0
321 1 14.087 -10.4984 19.9999 0 0 0
322 1 14.0714 -8.01298 19.9999 0 0 0
66 1 -13.0658 -5.54976 19.9999 0 0 0
67 1 -13.7179 -4.30197 19.9999 0 0 0
68 1 -13.0406 -3.0891 19.9999 0 0 0
69 1 -13.6883 -1.86008 19.9999 0 0 0
70 1 -13.0424 -0.636745 19.9999 0 0 0
83 1 -11.5387 -5.54743 19.9999 0 0 0
84 1 -11.5566 -3.09089 19.9999 0 0 0
85 1 -11.5625 -0.637245 19.9999 0 0 0
94 1 -10.8162 -4.30509 19.9892 0.0012365 9.45759e-05 0.000575335
95 1 -10.8388 -1.82045 20.0315 -0.00912435 0.00700267 0.00029668
106 1 -8.73324 -5.46402 20.0691 0.00022902 -0.0144311 0.000543658
107 1 -9.36732 -4.26962 20.069 0.00471369 0.000675609 -0.00435389
108 1 -8.68299 -3.00469 19.8627 0.00783446 0.00234763 0.0117309
109 1 -9.40762 -1.84504 19.8975 -0.00230943 0.00600888 0.00805982
110 1 -8.65606 -0.606169 19.7315 0.00912419 -0.00162835 0.0111146
125 1 -7.26791 -0.717266 19.5346 -0.00142026 0.000562978 0.00871326
124 1 -7.23433 -3.0489 19.7242 0.00123737 0.0105783 0.00155866
123 1 -7.27616 -5.43073 19.9281 -0.00514077 0.00117876 -0.00174495
186 1 -0.0566386 -5.48822 19.6352 -0.00481105 -0.00410773 0.00200774
134 1 -6.54025 -4.25869 19.6772 -0.00110908 0.00162003 0.00153654
163 1 -2.99133 -5.49701 19.2813 3.68025e-05 -0.00211025 0.000844564
135 1 -6.55588 -1.88061 19.5286 0.01331 0.00634697 0.0179965
146 1 -4.44647 -5.54352 19.4637 -0.00194783 -0.0160426 0.00413205
147 1 -5.11285 -4.26155 19.5298 -0.00350194 -0.000744597 -0.000928412
148 1 -4.40603 -3.08675 19.3442 0.0117856 0.00134336 0.000647129
149 1 -5.12013 -1.88591 19.3694 0.0107874 -0.00106129 0.00740668
164 1 -3.01551 -3.15678 19.1129 -0.00363291 -0.0041859 -0.00144856
174 1 -2.21491 -4.30535 19.2139 -0.00595246 -0.0117723 0.000126203
150 1 -4.38097 -0.684411 19.3824 0.0099448 0.00427223 0.00104516
187 1 -0.76773 -4.33254 19.3315 0.00423258 0.00413461 -0.000387965
165 1 -2.93336 -0.683518 19.2458 0.00797838 -0.00137717 -0.00284428
175 1 -2.27649 -1.911 19.1588 -0.00143882 0.00697134 -0.000801937
188 1 -0.0536258 -3.11351 19.3205 0.00324967 -0.00115228 -0.0103935
189 1 -0.846742 -1.92037 19.3331 -0.00302647 -0.000955567 -0.0121847
190 1 -0.11557 -0.666611 19.3325 0.0113084 -0.00461747 -0.0109244
203 1 1.41893 -5.51229 19.621 -0.00642517 0.000119688 0.00779656
226 1 4.18166 -5.61063 20.2609 -0.000336886 -0.00124253 0.00932803
243 1 5.60209 -5.55147 20.5697 -0.00271593 -0.00223922 0.00828863
254 1 6.3087 -4.32774 20.6208 0.00251901 0.00333638 -0.00328694
255 1 6.21716 -1.9164 20.5562 0.00107291 -0.00294286 0.0142112
227 1 3.4962 -4.33288 20.0836 -0.0050677 0.00199898 0.0118445
244 1 5.50205 -3.1877 20.6649 0.00103526 0.00675401 -0.000377936
214 1 2.10948 -4.29921 19.6021 -0.0064513 0.00189094 0.00998981
228 1 4.13288 -3.12082 20.3409 -0.00584965 0.000443657 0.00618494
245 1 5.4513 -0.712735 20.4906 0.00213446 0.00280423 0.0132076
229 1 3.34826 -1.92113 20.1665 0.00111097 -0.00325601 0.00941055
230 1 4.01403 -0.709207 20.3814 -0.00382058 -0.00232902 -0.00201906
204 1 1.38916 -3.1269 19.4147 0.00693054 -0.00465162 0.00251293
215 1 1.9683 -1.87199 19.7327 -0.00203369 0.00128021 -0.011216
205 1 1.30104 -0.646244 19.5939 -0.00467409 -0.00585082 -0.0153007
269 1 7.66384 -1.86681 20.3225 0.00450353 -0.00239373 0.00253341
267 1 7.73302 -4.25613 20.3942 -0.00132404 -0.0101825 -0.0107676
266 1 8.47333 -5.44963 20.6093 0.00225329 -0.000929327 -0.00504171
268 1 8.43142 -3.08166 20.1873 -0.00158589 -0.000715346 -0.00691055
270 1 8.35402 -0.656271 20.365 0.00563029 0.000157542 0.00766965
283 1 9.83772 -5.5726 20.3618 0.00305873 0.00981871 -0.00553633
284 1 9.85881 -3.06049 20.0396 -0.00438139 -0.00672178 0.000956082
285 1 9.803 -0.665469 20.1552 0.00349668 -0.00584441 0.00488951
294 1 10.492 -4.31467 20.0993 -0.00509939 -0.0100829 -0.00422692
295 1 10.5267 -1.85203 19.9627 -0.00222238 -0.00484064 0.00222445
306 1 12.6496 -5.55341 19.9999 0 0 0
307 1 11.9041 -4.32686 19.9999 0 0 0
308 1 12.647 -3.09734 19.9999 0 0 0
309 1 11.9037 -1.86828 19.9999 0 0 0
310 1 12.6457 -0.637745 19.9999 0 0 0
323 1 14.0539 -5.56516 19.9999 0 0 0
324 1 14.0472 -3.10129 19.9999 0 0 0
325 1 14.0438 -0.638188 19.9999 0 0 0
71 1 -13.6826 0.591886 19.9999 0 0 0
72 1 -13.0424 1.82079 19.9999 0 0 0
73 1 -13.6895 3.04359 19.9999 0 0 0
74 1 -13.0413 4.27397 19.9999 0 0 0
75 1 -13.7195 5.48914 19.9999 0 0 0
86 1 -11.5623 1.82169 19.9999 0 0 0
87 1 -11.5564 4.27485 19.9999 0 0 0
96 1 -10.8763 0.58 19.9672 0.0116961 -0.000466675 0.00115123
97 1 -10.8768 3.05255 19.8445 -0.00321595 0.00143578 0.01563
98 1 -10.9187 5.46586 19.941 -0.00227552 -0.0057408 0.00103441
111 1 -9.42921 0.514778 19.9055 0.00894105 -0.00288217 0.0131498
112 1 -8.71587 1.73179 19.752 0.00845864 0.00446233 0.0052248
113 1 -9.44357 2.94125 19.9568 0.00337291 0.00270253 0.00224434
114 1 -8.77179 4.1809 20.0208 -0.00655401 -0.00735665 0.000880093
115 1 -9.49599 5.41693 20.1059 -0.00265841 -0.00356563 0.00188375
126 1 -7.30379 1.72919 19.5691 -0.0076783 -0.00678585 0.00778008
127 1 -7.3543 4.17463 19.8547 0.00387643 0.00352127 -0.0094763
138 1 -6.64989 5.43171 19.7932 -0.00634278 0.0042651 -0.000663214
195 1 -0.849116 5.47824 19.4541 -0.00292689 0.00340769 0.00897321
155 1 -5.18704 5.44691 19.5815 -0.00564605 0.0124339 -0.000550368
178 1 -2.28504 5.46719 19.4213 5.83188e-05 0.01221 0.00399454
137 1 -6.64894 2.96565 19.586 0.00882389 -0.00245956 0.0052149
153 1 -5.19605 3.03661 19.4603 0.00472438 0.00165242 0.00459775
154 1 -4.44917 4.23694 19.4784 0.00249984 -9.58004e-05 -0.00248095
136 1 -6.52225 0.49075 19.4788 0.00455154 -0.00586335 0.0126583
151 1 -5.13391 0.530151 19.3442 0.0146576 0.000211448 -0.00365427
167 1 -3.03063 4.23491 19.2293 0.00474817 0.012292 -0.00479592
152 1 -4.44959 1.82465 19.3431 0.0124807 -0.0026928 0.00661533
177 1 -2.30475 3.02532 19.0739 -0.0049658 0.00448632 -0.00296314
194 1 -0.0994734 4.22978 19.2166 -0.00411298 -0.00306721 -0.00834885
166 1 -3.01415 1.80681 19.2525 -0.00368194 0.000359925 -0.00121309
176 1 -2.27184 0.5913 19.2621 0.0192077 0.00319372 -0.00586784
193 1 -0.803593 3.02208 19.0235 0.00765008 0.00339545 -0.0095983
191 1 -0.808872 0.578094 19.3143 0.00650048 -0.00622681 -0.00942081
192 1 -0.0805748 1.81967 19.3045 0.00546564 0.00580194 -0.0175813
218 1 2.05706 5.45617 19.8268 -0.016586 0.00361598 0.00334852
235 1 3.49722 5.51268 20.1916 -0.00340424 0.00525478 0.00955443
247 1 5.66479 4.22793 20.6344 -0.00508505 -0.00360474 0.00109614
257 1 6.3429 2.97938 20.6131 -0.00838791 -0.00288835 0.0010528
258 1 6.33695 5.4888 20.644 -0.0124928 0.00318292 -0.000871886
234 1 4.20841 4.27165 20.4306 -0.00779435 -0.000207232 0.000481845
256 1 6.21605 0.550864 20.5078 0.00688938 -8.07239e-05 0.000990411
246 1 5.55165 1.80886 20.6476 0.00348454 0.00644073 0.00873671
233 1 3.47152 3.0334 20.3124 -0.00850252 0.00169332 0.00428175
231 1 3.33174 0.5329 20.3122 0.00703249 -0.0124967 -0.000751848
232 1 4.08956 1.78417 20.4915 -0.00674098 0.00561507 0.00685628
207 1 1.30397 4.2201 19.6486 -0.00746789 -0.00226747 -0.000849166
217 1 2.04912 3.03232 19.8839 0.0049095 0.0035459 0.00272139
206 1 1.34591 1.83312 19.5836 0.000344623 0.00207252 -0.00413651
216 1 1.99723 0.545379 19.8579 0.0141546 0.00709338 -0.00746274
275 1 7.75469 5.43982 20.5397 -0.00445794 0.000305876 -0.00543615
271 1 7.65345 0.579778 20.3695 0.000423193 0.00504148 0.00534363
273 1 7.76937 3.04093 20.4188 0.000187122 0.000814106 -0.00584186
272 1 8.41738 1.75958 20.3176 0.00181001 -0.0022782 0.00313602
274 1 8.52872 4.20839 20.4127 0.00193782 0.00220665 -0.0116641
286 1 9.79848 1.75746 19.994 0.00589156 -0.00402243 -0.00307743
287 1 9.88896 4.24072 20.0978 -0.00248769 -0.00170832 -0.0101905
296 1 10.523 0.540516 20.0145 -0.00892465 -0.00668917 0.00505275
297 1 10.5319 2.95374 19.931 0.00336158 0.00658594 -0.00963888
298 1 10.5367 5.51261 20.1226 -0.00263826 0.00687976 -0.00357426
311 1 11.9034 0.592385 19.9999 0 0 0
312 1 12.6457 1.82255 19.9999 0 0 0
313 1 11.9038 3.05326 19.9999 0 0 0
314 1 12.6466 4.28301 19.9999 0 0 0
315 1 11.9041 5.51379 19.9999 0 0 0
326 1 14.0439 1.82305 19.9999 0 0 0
327 1 14.0468 4.28589 19.9999 0 0 0
76 1 -13.0678 6.73987 19.9999 0 0 0
77 1 -13.743 7.99662 19.9999 0 0 0
78 1 -13.076 9.22053 19.9999 0 0 0
79 1 -13.6781 10.6114 19.9999 0 0 0
80 1 -13.0646 11.9529 19.9999 0 0 0
88 1 -11.5395 6.7281 19.9999 0 0 0
89 1 -11.5535 9.18478 19.9999 0 0 0
90 1 -11.7099 11.6077 19.9999 0 0 0
99 1 -10.8861 7.9314 20.0196 -0.00136625 -0.00471867 -0.00673874
100 1 -10.9027 10.4758 19.9999 0 0 0
116 1 -8.75996 6.64702 19.9746 -0.00332003 -0.000390126 0.00375639
117 1 -9.41273 7.90549 19.983 0.00153462 0.00134181 -0.00387511
118 1 -8.71127 9.15053 19.8443 0.00573959 0.0105821 0.00385007
119 1 -9.37207 10.4804 19.9999 0 0 0
120 1 -8.62688 11.6228 19.9999 0 0 0
130 1 -7.38724 11.6024 19.9999 0 0 0
128 1 -7.34565 6.66331 19.9287 -0.00403601 0.000804092 -0.000438744
129 1 -7.30763 9.16481 19.9108 0.000919672 -0.000645039 -0.000260686
139 1 -6.61944 7.90754 19.8481 -0.000427603 4.69393e-05 -0.00203823
140 1 -6.60892 10.469 19.9999 0 0 0
156 1 -4.49319 6.73222 19.5134 -0.00110543 0.00183638 0.00225371
157 1 -5.22372 7.93159 19.768 -0.000830885 0.00159602 0.000916982
158 1 -4.43009 9.17654 19.8282 0.0107993 0.00465706 0.000391365
159 1 -5.14663 10.4689 19.9999 0 0 0
160 1 -4.36691 11.6023 19.9999 0 0 0
168 1 -3.01827 6.70347 19.4343 -0.00516791 -0.00316583 0.00551373
169 1 -3.02091 9.12181 19.855 0.00126833 0.00531799 0.00771577
170 1 -3.12269 11.6018 19.9999 0 0 0
179 1 -2.26932 7.92239 19.6722 0.00162924 0.0110363 0.00888044
180 1 -2.34103 10.4689 19.9999 0 0 0
196 1 -0.0964363 6.69072 19.7045 -0.0019947 0.00481301 -0.000534614
197 1 -0.82364 7.96811 19.892 0.0090656 -0.00384705 0.00083638
198 1 -0.171502 9.16389 20.0211 0.000697574 -0.00116513 0.0091122
199 1 -0.876963 10.4688 19.9999 0 0 0
200 1 -0.0953724 11.6018 19.9999 0 0 0
208 1 1.30733 6.68945 19.8686 0.00735481 -0.0078453 0.0135961
209 1 1.26981 9.1953 20.0627 0.00999126 -0.0069736 -0.00204756
210 1 1.14924 11.6018 19.9999 0 0 0
219 1 2.01401 7.97232 20.036 -0.00190936 0.00389143 0.00174431
220 1 1.93091 10.4688 19.9999 0 0 0
236 1 4.17486 6.74388 20.4294 0.00190292 0.00471145 0.00678416
237 1 3.41451 7.98262 20.2947 -0.00374925 0.00380574 0.00844456
238 1 4.10803 9.22336 20.3321 0.00187722 0.00519298 0.00403529
239 1 3.39506 10.4687 19.9999 0 0 0
240 1 4.17656 11.6018 19.9999 0 0 0
248 1 5.57533 6.69708 20.6745 -0.00858856 0.00057712 -0.00507374
249 1 5.58069 9.17153 20.4524 -0.00160794 -0.0116682 0.00452703
250 1 5.4212 11.6017 19.9999 0 0 0
259 1 6.27941 7.93017 20.5885 0.00365656 0.000761867 0.00221894
260 1 6.20335 10.4685 19.9999 0 0 0
277 1 7.66286 7.9213 20.436 -0.00295623 -0.00497935 -0.00545767
276 1 8.44573 6.6878 20.4882 -0.00232262 0.00898786 -0.0062931
278 1 8.34948 9.1833 20.1326 -0.00250925 -0.00189927 -0.00542707
279 1 7.66711 10.4687 19.9999 0 0 0
280 1 8.44529 11.6024 19.9999 0 0 0
288 1 9.81658 6.76213 20.1925 -0.00721716 0.0117371 0.0082445
289 1 9.73228 9.2199 20.0905 0.0082058 0.0102504 -0.00520943
290 1 9.6873 11.6101 19.9999 0 0 0
299 1 10.4591 8.02256 20.0887 -0.00274451 0.00828732 -0.00913784
300 1 10.4752 10.4755 19.9999 0 0 0
316 1 12.6473 6.74288 19.9999 0 0 0
317 1 11.9051 7.97805 19.9999 0 0 0
318 1 12.6583 9.19198 19.9999 0 0 0
319 1 11.9246 10.4937 19.9999 0 0 0
320 1 12.7709 11.5297 19.9999 0 0 0
328 1 14.0456 6.75188 19.9999 0 0 0
329 1 14.0237 9.17042 19.9999 0 0 0
330 1 13.9415 11.792 19.9999 0 0 0
